<?xml version="1.0"?>
<VTKFile type="UnstructuredGrid"  version="0.1"  >
<UnstructuredGrid>
<Piece  NumberOfPoints="961" NumberOfCells="1800">
<Points>
<DataArray  type="Float64"  NumberOfComponents="3"  format="ascii">-1 -1 0  -0.9333333333333333 -1 0  -0.8666666666666667 -1 0  -0.8 -1 0  -0.7333333333333334 -1 0  -0.6666666666666667 -1 0  -0.6 -1 0  -0.5333333333333333 -1 0  -0.4666666666666667 -1 0  -0.4 -1 0  -0.3333333333333334 -1 0  -0.2666666666666667 -1 0  -0.2 -1 0  -0.1333333333333333 -1 0  -0.06666666666666665 -1 0  0 -1 0  0.06666666666666665 -1 0  0.1333333333333333 -1 0  0.2 -1 0  0.2666666666666666 -1 0  0.3333333333333333 -1 0  0.3999999999999999 -1 0  0.4666666666666666 -1 0  0.5333333333333334 -1 0  0.6000000000000001 -1 0  0.6666666666666667 -1 0  0.7333333333333334 -1 0  0.8 -1 0  0.8666666666666667 -1 0  0.9333333333333333 -1 0  1 -1 0  -1 -0.9333333333333333 0  -0.9333333333333333 -0.9333333333333333 0  -0.8666666666666667 -0.9333333333333333 0  -0.8 -0.9333333333333333 0  -0.7333333333333334 -0.9333333333333333 0  -0.6666666666666667 -0.9333333333333333 0  -0.6 -0.9333333333333333 0  -0.5333333333333333 -0.9333333333333333 0  -0.4666666666666667 -0.9333333333333333 0  -0.4 -0.9333333333333333 0  -0.3333333333333334 -0.9333333333333333 0  -0.2666666666666667 -0.9333333333333333 0  -0.2 -0.9333333333333333 0  -0.1333333333333333 -0.9333333333333333 0  -0.06666666666666665 -0.9333333333333333 0  0 -0.9333333333333333 0  0.06666666666666665 -0.9333333333333333 0  0.1333333333333333 -0.9333333333333333 0  0.2 -0.9333333333333333 0  0.2666666666666666 -0.9333333333333333 0  0.3333333333333333 -0.9333333333333333 0  0.3999999999999999 -0.9333333333333333 0  0.4666666666666666 -0.9333333333333333 0  0.5333333333333334 -0.9333333333333333 0  0.6000000000000001 -0.9333333333333333 0  0.6666666666666667 -0.9333333333333333 0  0.7333333333333334 -0.9333333333333333 0  0.8 -0.9333333333333333 0  0.8666666666666667 -0.9333333333333333 0  0.9333333333333333 -0.9333333333333333 0  1 -0.9333333333333333 0  -1 -0.8666666666666667 0  -0.9333333333333333 -0.8666666666666667 0  -0.8666666666666667 -0.8666666666666667 0  -0.8 -0.8666666666666667 0  -0.7333333333333334 -0.8666666666666667 0  -0.6666666666666667 -0.8666666666666667 0  -0.6 -0.8666666666666667 0  -0.5333333333333333 -0.8666666666666667 0  -0.4666666666666667 -0.8666666666666667 0  -0.4 -0.8666666666666667 0  -0.3333333333333334 -0.8666666666666667 0  -0.2666666666666667 -0.8666666666666667 0  -0.2 -0.8666666666666667 0  -0.1333333333333333 -0.8666666666666667 0  -0.06666666666666665 -0.8666666666666667 0  0 -0.8666666666666667 0  0.06666666666666665 -0.8666666666666667 0  0.1333333333333333 -0.8666666666666667 0  0.2 -0.8666666666666667 0  0.2666666666666666 -0.8666666666666667 0  0.3333333333333333 -0.8666666666666667 0  0.3999999999999999 -0.8666666666666667 0  0.4666666666666666 -0.8666666666666667 0  0.5333333333333334 -0.8666666666666667 0  0.6000000000000001 -0.8666666666666667 0  0.6666666666666667 -0.8666666666666667 0  0.7333333333333334 -0.8666666666666667 0  0.8 -0.8666666666666667 0  0.8666666666666667 -0.8666666666666667 0  0.9333333333333333 -0.8666666666666667 0  1 -0.8666666666666667 0  -1 -0.8 0  -0.9333333333333333 -0.8 0  -0.8666666666666667 -0.8 0  -0.8 -0.8 0  -0.7333333333333334 -0.8 0  -0.6666666666666667 -0.8 0  -0.6 -0.8 0  -0.5333333333333333 -0.8 0  -0.4666666666666667 -0.8 0  -0.4 -0.8 0  -0.3333333333333334 -0.8 0  -0.2666666666666667 -0.8 0  -0.2 -0.8 0  -0.1333333333333333 -0.8 0  -0.06666666666666665 -0.8 0  0 -0.8 0  0.06666666666666665 -0.8 0  0.1333333333333333 -0.8 0  0.2 -0.8 0  0.2666666666666666 -0.8 0  0.3333333333333333 -0.8 0  0.3999999999999999 -0.8 0  0.4666666666666666 -0.8 0  0.5333333333333334 -0.8 0  0.6000000000000001 -0.8 0  0.6666666666666667 -0.8 0  0.7333333333333334 -0.8 0  0.8 -0.8 0  0.8666666666666667 -0.8 0  0.9333333333333333 -0.8 0  1 -0.8 0  -1 -0.7333333333333334 0  -0.9333333333333333 -0.7333333333333334 0  -0.8666666666666667 -0.7333333333333334 0  -0.8 -0.7333333333333334 0  -0.7333333333333334 -0.7333333333333334 0  -0.6666666666666667 -0.7333333333333334 0  -0.6 -0.7333333333333334 0  -0.5333333333333333 -0.7333333333333334 0  -0.4666666666666667 -0.7333333333333334 0  -0.4 -0.7333333333333334 0  -0.3333333333333334 -0.7333333333333334 0  -0.2666666666666667 -0.7333333333333334 0  -0.2 -0.7333333333333334 0  -0.1333333333333333 -0.7333333333333334 0  -0.06666666666666665 -0.7333333333333334 0  0 -0.7333333333333334 0  0.06666666666666665 -0.7333333333333334 0  0.1333333333333333 -0.7333333333333334 0  0.2 -0.7333333333333334 0  0.2666666666666666 -0.7333333333333334 0  0.3333333333333333 -0.7333333333333334 0  0.3999999999999999 -0.7333333333333334 0  0.4666666666666666 -0.7333333333333334 0  0.5333333333333334 -0.7333333333333334 0  0.6000000000000001 -0.7333333333333334 0  0.6666666666666667 -0.7333333333333334 0  0.7333333333333334 -0.7333333333333334 0  0.8 -0.7333333333333334 0  0.8666666666666667 -0.7333333333333334 0  0.9333333333333333 -0.7333333333333334 0  1 -0.7333333333333334 0  -1 -0.6666666666666667 0  -0.9333333333333333 -0.6666666666666667 0  -0.8666666666666667 -0.6666666666666667 0  -0.8 -0.6666666666666667 0  -0.7333333333333334 -0.6666666666666667 0  -0.6666666666666667 -0.6666666666666667 0  -0.6 -0.6666666666666667 0  -0.5333333333333333 -0.6666666666666667 0  -0.4666666666666667 -0.6666666666666667 0  -0.4 -0.6666666666666667 0  -0.3333333333333334 -0.6666666666666667 0  -0.2666666666666667 -0.6666666666666667 0  -0.2 -0.6666666666666667 0  -0.1333333333333333 -0.6666666666666667 0  -0.06666666666666665 -0.6666666666666667 0  0 -0.6666666666666667 0  0.06666666666666665 -0.6666666666666667 0  0.1333333333333333 -0.6666666666666667 0  0.2 -0.6666666666666667 0  0.2666666666666666 -0.6666666666666667 0  0.3333333333333333 -0.6666666666666667 0  0.3999999999999999 -0.6666666666666667 0  0.4666666666666666 -0.6666666666666667 0  0.5333333333333334 -0.6666666666666667 0  0.6000000000000001 -0.6666666666666667 0  0.6666666666666667 -0.6666666666666667 0  0.7333333333333334 -0.6666666666666667 0  0.8 -0.6666666666666667 0  0.8666666666666667 -0.6666666666666667 0  0.9333333333333333 -0.6666666666666667 0  1 -0.6666666666666667 0  -1 -0.6 0  -0.9333333333333333 -0.6 0  -0.8666666666666667 -0.6 0  -0.8 -0.6 0  -0.7333333333333334 -0.6 0  -0.6666666666666667 -0.6 0  -0.6 -0.6 0  -0.5333333333333333 -0.6 0  -0.4666666666666667 -0.6 0  -0.4 -0.6 0  -0.3333333333333334 -0.6 0  -0.2666666666666667 -0.6 0  -0.2 -0.6 0  -0.1333333333333333 -0.6 0  -0.06666666666666665 -0.6 0  0 -0.6 0  0.06666666666666665 -0.6 0  0.1333333333333333 -0.6 0  0.2 -0.6 0  0.2666666666666666 -0.6 0  0.3333333333333333 -0.6 0  0.3999999999999999 -0.6 0  0.4666666666666666 -0.6 0  0.5333333333333334 -0.6 0  0.6000000000000001 -0.6 0  0.6666666666666667 -0.6 0  0.7333333333333334 -0.6 0  0.8 -0.6 0  0.8666666666666667 -0.6 0  0.9333333333333333 -0.6 0  1 -0.6 0  -1 -0.5333333333333333 0  -0.9333333333333333 -0.5333333333333333 0  -0.8666666666666667 -0.5333333333333333 0  -0.8 -0.5333333333333333 0  -0.7333333333333334 -0.5333333333333333 0  -0.6666666666666667 -0.5333333333333333 0  -0.6 -0.5333333333333333 0  -0.5333333333333333 -0.5333333333333333 0  -0.4666666666666667 -0.5333333333333333 0  -0.4 -0.5333333333333333 0  -0.3333333333333334 -0.5333333333333333 0  -0.2666666666666667 -0.5333333333333333 0  -0.2 -0.5333333333333333 0  -0.1333333333333333 -0.5333333333333333 0  -0.06666666666666665 -0.5333333333333333 0  0 -0.5333333333333333 0  0.06666666666666665 -0.5333333333333333 0  0.1333333333333333 -0.5333333333333333 0  0.2 -0.5333333333333333 0  0.2666666666666666 -0.5333333333333333 0  0.3333333333333333 -0.5333333333333333 0  0.3999999999999999 -0.5333333333333333 0  0.4666666666666666 -0.5333333333333333 0  0.5333333333333334 -0.5333333333333333 0  0.6000000000000001 -0.5333333333333333 0  0.6666666666666667 -0.5333333333333333 0  0.7333333333333334 -0.5333333333333333 0  0.8 -0.5333333333333333 0  0.8666666666666667 -0.5333333333333333 0  0.9333333333333333 -0.5333333333333333 0  1 -0.5333333333333333 0  -1 -0.4666666666666667 0  -0.9333333333333333 -0.4666666666666667 0  -0.8666666666666667 -0.4666666666666667 0  -0.8 -0.4666666666666667 0  -0.7333333333333334 -0.4666666666666667 0  -0.6666666666666667 -0.4666666666666667 0  -0.6 -0.4666666666666667 0  -0.5333333333333333 -0.4666666666666667 0  -0.4666666666666667 -0.4666666666666667 0  -0.4 -0.4666666666666667 0  -0.3333333333333334 -0.4666666666666667 0  -0.2666666666666667 -0.4666666666666667 0  -0.2 -0.4666666666666667 0  -0.1333333333333333 -0.4666666666666667 0  -0.06666666666666665 -0.4666666666666667 0  0 -0.4666666666666667 0  0.06666666666666665 -0.4666666666666667 0  0.1333333333333333 -0.4666666666666667 0  0.2 -0.4666666666666667 0  0.2666666666666666 -0.4666666666666667 0  0.3333333333333333 -0.4666666666666667 0  0.3999999999999999 -0.4666666666666667 0  0.4666666666666666 -0.4666666666666667 0  0.5333333333333334 -0.4666666666666667 0  0.6000000000000001 -0.4666666666666667 0  0.6666666666666667 -0.4666666666666667 0  0.7333333333333334 -0.4666666666666667 0  0.8 -0.4666666666666667 0  0.8666666666666667 -0.4666666666666667 0  0.9333333333333333 -0.4666666666666667 0  1 -0.4666666666666667 0  -1 -0.4 0  -0.9333333333333333 -0.4 0  -0.8666666666666667 -0.4 0  -0.8 -0.4 0  -0.7333333333333334 -0.4 0  -0.6666666666666667 -0.4 0  -0.6 -0.4 0  -0.5333333333333333 -0.4 0  -0.4666666666666667 -0.4 0  -0.4 -0.4 0  -0.3333333333333334 -0.4 0  -0.2666666666666667 -0.4 0  -0.2 -0.4 0  -0.1333333333333333 -0.4 0  -0.06666666666666665 -0.4 0  0 -0.4 0  0.06666666666666665 -0.4 0  0.1333333333333333 -0.4 0  0.2 -0.4 0  0.2666666666666666 -0.4 0  0.3333333333333333 -0.4 0  0.3999999999999999 -0.4 0  0.4666666666666666 -0.4 0  0.5333333333333334 -0.4 0  0.6000000000000001 -0.4 0  0.6666666666666667 -0.4 0  0.7333333333333334 -0.4 0 
[...]
<PointData  Scalars="f_24"> 
<DataArray  type="Float64"  Name="f_24"  format="ascii">0.0000000000000000e+00  0.0000000000000000e+00  0.0000000000000000e+00  0.0000000000000000e+00  0.0000000000000000e+00  0.0000000000000000e+00  0.0000000000000000e+00  0.0000000000000000e+00  0.0000000000000000e+00  0.0000000000000000e+00  0.0000000000000000e+00  0.0000000000000000e+00  0.0000000000000000e+00  0.0000000000000000e+00  0.0000000000000000e+00  0.0000000000000000e+00  0.0000000000000000e+00  0.0000000000000000e+00  0.0000000000000000e+00  0.0000000000000000e+00  0.0000000000000000e+00  0.0000000000000000e+00  0.0000000000000000e+00  0.0000000000000000e+00  0.0000000000000000e+00  -6.9206037022075485e-08  0.0000000000000000e+00  -4.8949924547723003e-08  0.0000000000000000e+00  0.0000000000000000e+00  1.5920199667082917e+01  0.0000000000000000e+00  3.5638680130544053e+06  3.1506740130523671e+06  5.0919272780006910e+06  2.6309326429089410e+06  4.6035130644945614e+06  1.2501884099362586e+06  4.3376046411863584e+06  7.4313960098062264e+04  4.0427202501925244e+06  -6.3914536472385225e+05  4.0896992668259847e+06  -1.5050776039101568e+06  4.6252408218614161e+06  -2.2559863832982699e+06  5.0980965009820601e+06  -2.6461389108167640e+06  5.6903529715023758e+06  -3.0243482467212984e+06  6.5785357903335644e+06  -3.1235330715500982e+06  8.0053391574104894e+06  -3.8207941563182203e+06  1.3262331535244716e+07  -7.7285497911713449e+06  2.7007077290312558e+07  -1.4950925338930910e+07  5.0119473444658533e+07  -1.1884552239460535e+07  1.1913375938018796e+08  1.3901302149054411e+01  0.0000000000000000e+00  3.1506739598855181e+06  3.2114425340247699e+06  -4.1320039986193360e+03  -6.7820346725463914e+05  -2.6008609784571216e+06  -1.7076914140977282e+06  -3.3031888437756984e+06  -2.1145420605681189e+06  -2.8740118031683993e+06  -2.0112139237603066e+06  -2.9444705134906536e+06  -1.4448236555469399e+06  -2.9742409149543201e+06  -1.5395569635910634e+06  -2.6188110131950746e+06  -1.8201650662538165e+06  -2.7931891674354831e+06  -1.9382924808309043e+06  -3.0547550565261273e+06  -2.6299400216142437e+06  -4.0124563429030315e+06  -2.1396685615852252e+06  -9.2861941119004693e+06  4.9012073464902132e+04  -1.8412228439330779e+07  5.8522398728666140e+05  -1.9884247150200043e+07  -1.1346572086386632e+07  -1.1884561423359493e+07  1.2080797835612625e+01  -1.4169316779598198e-09  5.0919272128836764e+06  -4.1319950049111694e+03  -5.0534834954449878e+05  -2.2382436947111851e+06  9.8231344973899971e+05  -1.3952250343043939e+06  2.3255126944209062e+06  -2.8352281249013735e+05  3.3739428933921456e+06  -7.1983803294495842e+05  4.6057143263434293e+06  -1.2208463071113743e+06  4.9079491427745800e+06  -1.2456112657790163e+06  5.3574514994798061e+06  -1.9932116231922561e+06  6.4958255296888622e+06  -2.6182411312085777e+06  6.9893867453287076e+06  -2.8019328602404417e+06  8.9096873560195919e+06  -5.3772598924330054e+06  1.5756076775258543e+07  -9.6133462436216231e+06  2.4859330825829085e+07  -1.6823371963997651e+07  2.8467035082378067e+07  -1.9884246860453933e+07  5.0119475441928893e+07  1.0445242970849630e+01  0.0000000000000000e+00  2.6309325268956032e+06  -6.7820343309083243e+05  -2.2382437009840258e+06  8.6557582759964559e+05  -1.2425340745558732e+06  8.6891346005629760e+05  -8.3307703750607814e+05  3.8337108015399426e+05  -2.0386700504702032e+06  4.9847520166859886e+05  -2.5482135074841497e+06  -2.1301762580257404e+05  -2.2840742838277416e+06  -4.8277717720376601e+05  -2.7857082200953336e+06  -8.1392583389188279e+04  -2.9835300405844753e+06  -7.2112970107509417e+05  -2.1641276632336304e+06  -1.0091373929448025e+06  -4.0964827382546770e+06  1.2334372478360080e+06  -1.0349891766470430e+07  3.6043744994179467e+06  -1.5471334642730560e+07  8.0072359115213910e+06  -1.6823382129173454e+07  5.8523091773495951e+05  -1.4950933076763052e+07  8.9816656334134368e+00  5.2797473433869763e-10  4.6035129818176245e+06  -2.6008609129088717e+06  9.8231345026320289e+05  -1.2425340727219309e+06  1.1213680186614285e+06  -8.2347553291418403e+05  1.5505473777354532e+06  -1.8348080734794750e+06  2.8416555055185715e+06  -1.8236887717900171e+06  3.0666350432082992e+06  -1.5166726574918134e+06  3.8481362187324972e+06  -2.3177080860699001e+06  5.0893738688229043e+06  -2.9007784820010811e+06  5.2696622809723802e+06  -2.6210330203095847e+06  5.5068571665942045e+06  -4.0784171766856438e+06  9.6456826421995107e+06  -7.1927463168737646e+06  1.6304096838724796e+07  -1.0720163946628531e+07  2.0303482458103612e+07  -1.5471347549258264e+07  2.4859342746177331e+07  -1.8412229951312497e+07  2.7007076570359178e+07  7.6775654258694637e+00  0.0000000000000000e+00  1.2501882748404935e+06  -1.7076913254109004e+06  -1.3952250901600665e+06  8.6891347456289327e+05  -8.2347554094961507e+05  1.3097117719280727e+06  -1.8790883498610805e+06  1.8244333690528513e+06  -1.8612498252644727e+06  1.0014444507491423e+06  -1.8760699172114593e+06  1.0453820151802031e+06  -2.6992362154983352e+06  1.2794119965137905e+06  -2.8869370336281615e+06  7.2337431187328673e+05  -2.2212161738552204e+06  6.2391131768085506e+04  -2.4509079939933885e+06  1.1914969099994432e+06  -6.0371003602794698e+06  2.3277596015370684e+06  -9.2001064826568458e+06  4.3654779069056353e+06  -1.0720194264693821e+07  3.6043979868748528e+06  -9.6133548863704074e+06  4.9010878598536226e+04  -7.7285521921997927e+06  6.5209137836371642e+00  3.1191063545429710e-10  4.3376045743250046e+06  -3.3031887484288644e+06  2.3255126688448330e+06  -8.3307700786497246e+05  1.5505473750854109e+06  -1.8790883496644464e+06  2.0338778565527708e+06  -1.8009461778128271e+06  1.8374040543421123e+06  -1.9001952650864683e+06  2.9177818826127737e+06  -2.5723085520380856e+06  3.7099556827342384e+06  -2.6862187522502216e+06  4.0725353191369055e+06  -2.7612854566753749e+06  4.3070166391287548e+06  -3.1077980174304005e+06  5.6905129626133963e+06  -4.8551069193212790e+06  9.7803139878125880e+06  -6.5783565461480496e+06  1.2279706668655263e+07  -9.2001595766149480e+06  1.6304140474684302e+07  -1.0349900636925681e+07  1.5756068915469214e+07  -9.2861858165328708e+06  1.3262330092578284e+07  5.5001538210322831e+00  0.0000000000000000e+00  7.4313812979237278e+04  -2.1145419452488818e+06  -2.8352290888355265e+05  3.8337111758102640e+05  -1.8348081215911065e+06  1.8244333905292470e+06  -1.8009461888387422e+06  1.6265350975144496e+06  -1.9428333556615210e+06  2.2330819210357256e+06  -2.5159112350668637e+06  1.9343412329165840e+06  -2.5256232034986904e+06  1.8037048344368686e+06  -2.8327593334842590e+06  1.6489830680166229e+06  -2.4294569855748853e+06  1.1715502158001694e+06  -3.2703443496588380e+06  1.8980679660642587e+06  -5.7820458901537927e+06  2.6914486340628047e+06  -6.5784552316753976e+06  2.3278389827510910e+06  -7.1927636862211591e+06  1.2334184450917300e+06  -5.3772453772218199e+06  -2.1396703008930716e+06  -3.8207996253196108e+06  4.6042003619903422e+00  5.4065622630229457e-09  4.0427202033378831e+06  -2.8740116836951626e+06  3.3739428433531723e+06  -2.0386700045382129e+06  2.8416555119746109e+06  -1.8612498129869285e+06  1.8374040546486122e+06  -1.9428333548539607e+06  2.4534943699689135e+06  -2.4988641995701827e+06  2.4523503378762277e+06  -2.4936375118974210e+06  3.3896795928150364e+06  -3.2089108800865733e+06  3.9821819534255262e+06  -2.9367213716679662e+06  3.4751926981539852e+06  -2.9038319969298746e+06  5.5540512949926006e+06  -4.5400895355422571e+06  7.8947010458525550e+06  -5.7822148204721464e+06  9.7804526652146447e+06  -6.0371247438820712e+06  9.6456419785202872e+06  -4.0964468675928200e+06  8.9096813085955381e+06  -4.0124621621748935e+06  8.0053428629468894e+06  3.8224399567417584e+00  0.0000000000000000e+00  -6.3914551858553779e+05  -2.0112137984592142e+06  -7.1983818231006770e+05  4.9847529050522362e+05  -1.8236888656662228e+06  1.0014444840777400e+06  -1.9001953063989889e+06  2.2330819443812682e+06  -2.4988642157075363e+06  2.2031206860721018e+06  -2.4163587208797866e+06  2.9477937931571673e+06  -3.3193382634436269e+06  2.6625865801709737e+06  -2.6594827980871517e+06  1.5051670321815372e+06  -1.8903607157338101e+06  1.7521452036738412e+06  -4.2756217854519365e+06  2.7867288176043951e+06  -4.5403703211911991e+06  1.8983003736716614e+06  -4.8551455113730710e+06  1.1914183047856572e+06  -4.0783503699311498e+06  -1.0091485897936568e+06  -2.8019508850000896e+06  -2.6299276371931792e+06  -3.1235366474556825e+06  3.1447307984361328e+00  9.8995498853848743e-10  4.0896992412882517e+06  -2.9444703935767091e+06  4.6057142898370391e+06  -2.5482134485340901e+06  3.0666350316657471e+06  -1.8760698807869840e+06  2.9177818993211119e+06  -2.5159112398943747e+06  2.4523503482576772e+06  -2.4163587212257436e+06  3.2039954838492945e+06  -3.5039719405971142e+06  3.0743619051177423e+06  -2.5583016340438365e+06  2.8521583787865001e+06  -2.4018603547624843e+06  3.2675489454809427e+06  -3.6452069190579159e+06  5.8419834922571061e+06  -4.2760580436182888e+06  5.5544204138602661e+06  -3.2703976288339873e+06  5.6903701948504215e+06  -2.4507842397516496e+06  5.5068365614802605e+06  -2.1641608061734405e+06  6.9894119878002256e+06  -3.0547565039412612e+06  6.5785314321338553e+06  2.5614028898937193e+00  0.0000000000000000e+00  -1.5050777844193541e+06  -1.4448235014251231e+06  -1.2208465117031003e+06  -2.1301751355660922e+05  -1.5166727850940709e+06  1.0453820897840355e+06  -2.5723086581031047e+06  1.9343412820080768e+06  -2.4936375589816212e+06  2.9477938227138245e+06  -3.5039719679335821e+06  2.8215788559400490e+06  -2.2379665853714184e+06  2.5508153885876886e+06  -2.9118926700544585e+06  2.2626429383353279e+06  -2.7493737840439347e+06  2.6699111341237039e+06  -3.6458419265879374e+06  1.7526955607571581e+06  -2.9039039595717080e+06  1.1713089672971091e+06  -3.1075897668390404e+06  6.2358469096630375e+04  -2.6210986903568325e+06  -7.2107960116917081e+05  -2.6182466487879497e+06  -1.9383042640494897e+06  -3.0243445944420449e+06  2.0632578768539460e+00  -2.6937357148114579e-06  4.6252408330084616e+06  -2.9742407996471254e+06  4.9079491079619089e+06  -2.2840741933753425e+06  3.8481362119801589e+06  -2.6992361919116853e+06  3.7099557172362660e+06  -2.5256231938404557e+06  3.3896796289644018e+06  -3.3193382965076966e+06  3.0743619405992017e+06  -2.2379665889670956e+06  2.7938731831709095e+06  -3.6443605967520177e+06  3.0944093264857954e+06  -1.9924562570209769e+06  2.6388883493373785e+06  -2.7502241166900969e+06  3.2683104904004983e+06  -1.8904483066975125e+06  3.4748141581791374e+06  -2.4291263767157611e+06  4.3069690995739130e+06  -2.2213316000138139e+06  5.2697522797235986e+06  -2.9835363539460273e+06  6.4957979953106865e+06  -2.7931735572212050e+06  5.6903533512577368e+06  1.6415691313511509e+00  0.0000000000000000e+00  -2.2559866120819720e+06  -1.5395567895947006e+06  -1.2456115103629357e+06  -4.8277703169560467e+05  -2.3177082958990391e+06  1.2794121352910283e+06  -2.6862189149492658e+06  1.8037049276421040e+06  -3.2089110183350602e+06  2.6625866687720269e+06  -2.5583017012757976e+06  2.5508154205658473e+06  -3.6443606428196933e+06  3.1776151916146548e+06  -1.2475250322713773e+06  5.8617832268875465e+05  -1.9934971074548219e+06  2.2636115124061480e+06  -2.4019607921292414e+06  1.5046219739262958e+06  -2.9362393337515369e+06  1.6489218138299563e+06  -2.7614794709684853e+06  7.2352592110631242e+05  -2.9007891992649548e+06  -8.1444982526528809e+04  -1.9931820683346090e+06  -1.8201622539787609e+06  -2.6461480559571972e+06  1.2880817350394396e+00  1.8744144266235675e-09  5.0980965473465910e+06  -2.6188108774784384e+06  5.3574514763774127e+06  -2.7857081413786085e+06  5.0893739119922919e+06  -2.8869370201221900e+06  4.0725353748218641e+06  -2.8327593553031264e+06  3.9821820534293735e+06  -2.6594828431207375e+06  2.8521584513100153e+06  -2.9118927554424652e+06  3.0944094493425582e+06  -1.2475250807950941e+06  -3.4541560967493733e+03  -1.2486785321778348e+06  3.0955322149134544e+06  -2.9119995054622111e+06  2.8514446230695276e+06  -2.6588360581049095e+06  3.9821109967099116e+06  -2.8330563290317901e+06  4.0727697811059384e+06  -2.8869480929719694e+06  5.0892808518492272e+06  -2.7856519523105803e+06  5.3574568659335384e+06  -2.6188310925004072e+06  5.0981033230338981e+06  9.9501247919268232e-01  0.0000000000000000e+00  -2.6461392066878215e+06  -1.8201648566697754e+06  -1.9932119668879050e+06  -8.1392347694965429e+04  -2.9007787999403980e+06  7.2337451208925422e+05  -2.7612857186966059e+06  1.6489832678974320e+06  -2.9367216261809934e+06  1.5051671984947405e+06  -2.4018605703353146e+06  2.2626431331685511e+06  -1.9924564156050305e+06  5.8617832262004504e+05  -1.2486784836190052e+06  3.1787954627261246e+06  -3.6444700822337656e+06  2.5499730190636073e+06  -2.5575126223489209e+06  2.6625122692304696e+06  -3.2093268847677214e+06  1.8040372543544958e+06  -2.6862282793031260e+06  1.2792616846809590e+06  -2.3176167002632110e+06  -4.8276561420717719e+05  -1.2456533089908669e+06  -1.5395399867814067e+06  -2.2559843085621959e+06  7.5504986470451529e-01  1.9258397738956708e-09  5.6903530666987104e+06  -2.7931890297190314e+06  6.4958255761312582e+06  -2.9835299974483126e+06  5.2696623750921637e+06  -2.2212161843509520e+06  4.3070167822941486e+06  -2.4294570816497393e+06  3.4751928695634580e+06  -1.8903608057236217e+06  3.2675491103899833e+06  -2.7493738678490459e+06  2.6388883491832791e+06  -1.9934969486816516e+06  3.0955320920601934e+06  -3.6444700361659494e+06  2.7929823353294060e+06  -2.2370935032812972e+06  3.0742884440916255e+06  -3.3198613509166609e+06  3.3901076565489336e+06  -2.5256244990443727e+06  3.7097332767336662e+06  -2.6990977588609038e+06  3.8481568981578839e+06  -2.2841448737429115e+06  4.9079789091702700e+06  -2.9742307956212088e+06  4.6252297329198690e+06  5.6135409832732608e-01  0.0000000000000000e+00  -3.0243486793913650e+06  -1.9382921653732662e+06  -2.6182416439440935e+06  -7.2112936832849274e+05  -2.6210334558282765e+06  6.2391426350578724e+04  -3.1077984167793053e+06  1.1715504794252224e+06  -2.9038322823892580e+06  1.7521453446898069e+06  -3.6452070912762182e+06  2.6699111339690913e+06  -2.7502240325783743e+06  2.2636113173718625e+06  -2.9119994201556016e+06  2.5499729870685940e+06  -2.2370934996957304e+06  2.8215064041685099e+06  -3.5045601602486768e+06  2.9482928419332895e+06  -2.4936287728044670e+06  1.9340447572668551e+06  -2.5721212108400846e+06  1.0454169839986397e+06  -1.5167837725709982e+06  -2.1296972107327197e+05  -1.2208276368271026e+06  -1.4448499211585319e+06  -1.5050724664800058e+06  4.0755711147732282e-01  -2.0574639344636990e-09  6.5785359773229575e+06  -3.0547549109128923e+06  6.9893868463578848e+06  -2.1641275984379235e+06  5.5068572931308551e+06  -2.4509080070900405e+06  5.6905131204616409e+06  -3.2703443519981247e+06  5.5540513583172495e+06  -4.2756217202065801e+06  5.8419834919392793e+06  -3.6458417540983520e+06  3.2683103253125618e+06  -2.4019605763377687e+06  2.8514445507265558e+06  -2.5575125550438846e+06  3.0742884086484117e+06  -3.5045601329027819e+06  3.2045207967758421e+06  -2.4163420472368137e+06  2.4519966022106968e+06  -2.5156808236766299e+06  2.9178333513773214e+06  -1.8762249249221780e+06  3.0667027833451079e+06  -2.5481798144406942e+06  4.6056665552515350e+06  -2.9444576252619433e+06  4.0897064831004622e+06  2.8776252262439639e-01  0.0000000000000000e+00  -3.1235337253127652e+06  -2.6299395986097846e+06  -2.8019335183554105e+06  -1.0091370352317420e+06  -4.0784176765692416e+06  1.1914971759255566e+06  -4.8551072596883960e+06  1.8980680588693544e+06  -4.5400896923418855e+06  2.7867288167358078e+06  -4.2760581077957470e+06  1.7526954195281661e+06  -1.8904482167602533e+06  1.5046218073059993e+06  -2.6588360133753349e+06  2.6625121804424878e+06  -3.3198613179443721e+06  2.9482928123293035e+06  -2.4163420468964032e+06  2.2027452943056817e+06  -2.4986092284341441e+06  2.2331475925188875e+06  -1.9003909944475754e+06  1.0015314977470348e+06  -1.8236393830941559e+06  4.9840319500987616e+05  -7.1981995779774210e+05  -2.0111953078761699e+06  -6.3915912294906669e+05  1.9654567490225833e-01  0.0000000000000000e+00  8.0053393939362839e+06  -4.0124560348097263e+06  8.9096874174222201e+06  -4.0964825673413435e+06  9.6456827606969979e+06  -6.0371002732169861e+06  9.7803140564062577e+06  -5.7820457389705377e+06  7.8947010450850734e+06  -4.5403701626482820e+06  5.5544203491743216e+06  -2.9039036738931537e+06  3.4748139871275006e+06  -2.9362390786949233e+06  3.9821108972049840e+06  -3.2093267461369708e+06  3.3901076206158316e+06  -2.4936287256031279e+06  2.4519965918783876e+06  -2.4986092122924635e+06  2.4535656440632292e+06  -1.9430530358607273e+06  1.8375047325173637e+06  -1.8611842252807633e+06  2.8415585865552020e+06  -2.0386448654878165e+06  3.3739740927005243e+06  -2.8740385713421688e+06  4.0427233723271685e+06  1.2895371097337546e-01  0.0000000000000000e+00  -3.8207950642642579e+06  -2.1396680715283160e+06  -5.3772607036092905e+06  1.2334375869582845e+06  -7.1927468519104468e+06  2.3277597636996098e+06  -6.5783568342012353e+06  2.6914486322036432e+06  -5.7822149701211257e+06  1.8983002797521581e+06  -3.2703976250768886e+06  1.1713087032706584e+06  -2.4291262814306403e+06  1.6489216129543982e+06  -2.8330563080857876e+06  1.8040371604490613e+06  -2.5256245091735395e+06  1.9340447079105510e+06  -2.5156808189884443e+06  2.2331475691242036e+06  -1.9430530366723135e+06  1.6266407550083180e+06  -1.8008710499925134e+06  1.8243179483663642e+06  -1.8347787828665371e+06  3.8341625938838650e+05  -2.8356547338594031e+05  -2.1145368297794741e+06  7.4323319383377690e+04  8.0505108439965029e-02  5.5145126208862437e-09  1.3262331686288061e+07  -9.2861935256346446e+06  1.5756076887440782e+07  -1.0349891546469346e+07  1.6304097000228764e+07  -9.2001062570528481e+06  1.2279706665011043e+07  -6.5784549371516341e+06  9.7804525942810215e+06  -4.8551451708848551e+06  5.6903700357655380e+06  -3.1075893665834633e+06  4.3069689579395941e+06  -2.7614792071611579e+06  4.0727697270236402e+06  -2.6862281153251282e+06  3.7097332431658572e+06  -2.5721211041853032e+06  2.9178333349968139e+06  -1.9003909529743516e+06  1.8375047322616193e+06  -1.8008710389620150e+06  2.0337554544223938e+06  -1.8790562892509520e+06  1.5506029417465643e+06  -8.3313141160921275e+05  2.3255175070213145e+06  -3.3031668327393420e+06  4.3375930029557794e+06  4.7190616544032164e-02  0.0000000000000000e+00  -7.7285511639155596e+06  4.9012819349071186e+04  -9.6133473459365088e+06  3.6043747872665520e+06  -1.0720164522317396e+07  4.3654779064933956e+06  -9.2001598002384007e+06  2.3278388131116848e+06  -6.0371248266938217e+06  1.1914180399292798e+06  -2.4507842260070462e+06  6.2358172479328990e+04  -2.2213315925462698e+06  7.2352571758801013e+05  -2.8869481094971444e+06  1.2792615434566073e+06  -2.6990977842800030e+06  1.0454169081491467e+06  -1.8762249621028760e+06  1.0015314640109969e+06  -1.8611842377446301e+06  1.8243179268349889e+06  -1.8790562894527889e+06  1.3097713415700304e+06  -8.2353743173303141e+05  8.6891817212918005e+05  -1.3951942729833643e+06  -1.7077114116798786e+06  1.2501870612770659e+06  2.5472319467332645e-02  0.0000000000000000e+00  2.7007077240131259e+07  -1.8412227542311311e+07  2.4859331095537461e+07  -1.5471334171847580e+07  2.0303482441700041e+07  -1.0720193664115518e+07  1.6304140317643870e+07  -7.1927631481700074e+06  9.6456418518218398e+06  -4.0783498723683972e+06  5.5068364358970113e+06  -2.6210982500825804e+06  5.2697521918828292e+06  -2.9007888747992315e+06  5.0892808145897537e+06  -2.3176164855688410e+06  3.8481569086119975e+06  -1.5167836423561713e+06  3.0667027965815547e+06  -1.8236392882249907e+06  2.8415585806134008e+06  -1.8347787345336450e+06  1.5506029444584732e+06  -8.2353742369210243e+05  1.1213725212233684e+06  -1.2424972194445306e+06  9.8228683744739823e+05  -2.6008625784510723e+06  4.6035227191857761e+06  1.2284104681391128e-02  0.0000000000000000e+00  -1.4950927822026279e+07  5.8522505710013106e+05  -1.6823373138180964e+07  8.0072358888929700e+06  -1.5471348085905993e+07  3.6043976529865284e+