<?xml version="1.0"?>
<VTKFile type="UnstructuredGrid"  version="0.1"  >
<UnstructuredGrid>
<Piece  NumberOfPoints="961" NumberOfCells="1800">
<Points>
<DataArray  type="Float64"  NumberOfComponents="3"  format="ascii">-1 -1 0  -0.9333333333333333 -1 0  -0.8666666666666667 -1 0  -0.8 -1 0  -0.7333333333333334 -1 0  -0.6666666666666667 -1 0  -0.6 -1 0  -0.5333333333333333 -1 0  -0.4666666666666667 -1 0  -0.4 -1 0  -0.3333333333333334 -1 0  -0.2666666666666667 -1 0  -0.2 -1 0  -0.1333333333333333 -1 0  -0.06666666666666665 -1 0  0 -1 0  0.06666666666666665 -1 0  0.1333333333333333 -1 0  0.2 -1 0  0.2666666666666666 -1 0  0.3333333333333333 -1 0  0.3999999999999999 -1 0  0.4666666666666666 -1 0  0.5333333333333334 -1 0  0.6000000000000001 -1 0  0.6666666666666667 -1 0  0.7333333333333334 -1 0  0.8 -1 0  0.8666666666666667 -1 0  0.9333333333333333 -1 0  1 -1 0  -1 -0.9333333333333333 0  -0.9333333333333333 -0.9333333333333333 0  -0.8666666666666667 -0.9333333333333333 0  -0.8 -0.9333333333333333 0  -0.7333333333333334 -0.9333333333333333 0  -0.6666666666666667 -0.9333333333333333 0  -0.6 -0.9333333333333333 0  -0.5333333333333333 -0.9333333333333333 0  -0.4666666666666667 -0.9333333333333333 0  -0.4 -0.9333333333333333 0  -0.3333333333333334 -0.9333333333333333 0  -0.2666666666666667 -0.9333333333333333 0  -0.2 -0.9333333333333333 0  -0.1333333333333333 -0.9333333333333333 0  -0.06666666666666665 -0.9333333333333333 0  0 -0.9333333333333333 0  0.06666666666666665 -0.9333333333333333 0  0.1333333333333333 -0.9333333333333333 0  0.2 -0.9333333333333333 0  0.2666666666666666 -0.9333333333333333 0  0.3333333333333333 -0.9333333333333333 0  0.3999999999999999 -0.9333333333333333 0  0.4666666666666666 -0.9333333333333333 0  0.5333333333333334 -0.9333333333333333 0  0.6000000000000001 -0.9333333333333333 0  0.6666666666666667 -0.9333333333333333 0  0.7333333333333334 -0.9333333333333333 0  0.8 -0.9333333333333333 0  0.8666666666666667 -0.9333333333333333 0  0.9333333333333333 -0.9333333333333333 0  1 -0.9333333333333333 0  -1 -0.8666666666666667 0  -0.9333333333333333 -0.8666666666666667 0  -0.8666666666666667 -0.8666666666666667 0  -0.8 -0.8666666666666667 0  -0.7333333333333334 -0.8666666666666667 0  -0.6666666666666667 -0.8666666666666667 0  -0.6 -0.8666666666666667 0  -0.5333333333333333 -0.8666666666666667 0  -0.4666666666666667 -0.8666666666666667 0  -0.4 -0.8666666666666667 0  -0.3333333333333334 -0.8666666666666667 0  -0.2666666666666667 -0.8666666666666667 0  -0.2 -0.8666666666666667 0  -0.1333333333333333 -0.8666666666666667 0  -0.06666666666666665 -0.8666666666666667 0  0 -0.8666666666666667 0  0.06666666666666665 -0.8666666666666667 0  0.1333333333333333 -0.8666666666666667 0  0.2 -0.8666666666666667 0  0.2666666666666666 -0.8666666666666667 0  0.3333333333333333 -0.8666666666666667 0  0.3999999999999999 -0.8666666666666667 0  0.4666666666666666 -0.8666666666666667 0  0.5333333333333334 -0.8666666666666667 0  0.6000000000000001 -0.8666666666666667 0  0.6666666666666667 -0.8666666666666667 0  0.7333333333333334 -0.8666666666666667 0  0.8 -0.8666666666666667 0  0.8666666666666667 -0.8666666666666667 0  0.9333333333333333 -0.8666666666666667 0  1 -0.8666666666666667 0  -1 -0.8 0  -0.9333333333333333 -0.8 0  -0.8666666666666667 -0.8 0  -0.8 -0.8 0  -0.7333333333333334 -0.8 0  -0.6666666666666667 -0.8 0  -0.6 -0.8 0  -0.5333333333333333 -0.8 0  -0.4666666666666667 -0.8 0  -0.4 -0.8 0  -0.3333333333333334 -0.8 0  -0.2666666666666667 -0.8 0  -0.2 -0.8 0  -0.1333333333333333 -0.8 0  -0.06666666666666665 -0.8 0  0 -0.8 0  0.06666666666666665 -0.8 0  0.1333333333333333 -0.8 0  0.2 -0.8 0  0.2666666666666666 -0.8 0  0.3333333333333333 -0.8 0  0.3999999999999999 -0.8 0  0.4666666666666666 -0.8 0  0.5333333333333334 -0.8 0  0.6000000000000001 -0.8 0  0.6666666666666667 -0.8 0  0.7333333333333334 -0.8 0  0.8 -0.8 0  0.8666666666666667 -0.8 0  0.9333333333333333 -0.8 0  1 -0.8 0  -1 -0.7333333333333334 0  -0.9333333333333333 -0.7333333333333334 0  -0.8666666666666667 -0.7333333333333334 0  -0.8 -0.7333333333333334 0  -0.7333333333333334 -0.7333333333333334 0  -0.6666666666666667 -0.7333333333333334 0  -0.6 -0.7333333333333334 0  -0.5333333333333333 -0.7333333333333334 0  -0.4666666666666667 -0.7333333333333334 0  -0.4 -0.7333333333333334 0  -0.3333333333333334 -0.7333333333333334 0  -0.2666666666666667 -0.7333333333333334 0  -0.2 -0.7333333333333334 0  -0.1333333333333333 -0.7333333333333334 0  -0.06666666666666665 -0.7333333333333334 0  0 -0.7333333333333334 0  0.06666666666666665 -0.7333333333333334 0  0.1333333333333333 -0.7333333333333334 0  0.2 -0.7333333333333334 0  0.2666666666666666 -0.7333333333333334 0  0.3333333333333333 -0.7333333333333334 0  0.3999999999999999 -0.7333333333333334 0  0.4666666666666666 -0.7333333333333334 0  0.5333333333333334 -0.7333333333333334 0  0.6000000000000001 -0.7333333333333334 0  0.6666666666666667 -0.7333333333333334 0  0.7333333333333334 -0.7333333333333334 0  0.8 -0.7333333333333334 0  0.8666666666666667 -0.7333333333333334 0  0.9333333333333333 -0.7333333333333334 0  1 -0.7333333333333334 0  -1 -0.6666666666666667 0  -0.9333333333333333 -0.6666666666666667 0  -0.8666666666666667 -0.6666666666666667 0  -0.8 -0.6666666666666667 0  -0.7333333333333334 -0.6666666666666667 0  -0.6666666666666667 -0.6666666666666667 0  -0.6 -0.6666666666666667 0  -0.5333333333333333 -0.6666666666666667 0  -0.4666666666666667 -0.6666666666666667 0  -0.4 -0.6666666666666667 0  -0.3333333333333334 -0.6666666666666667 0  -0.2666666666666667 -0.6666666666666667 0  -0.2 -0.6666666666666667 0  -0.1333333333333333 -0.6666666666666667 0  -0.06666666666666665 -0.6666666666666667 0  0 -0.6666666666666667 0  0.06666666666666665 -0.6666666666666667 0  0.1333333333333333 -0.6666666666666667 0  0.2 -0.6666666666666667 0  0.2666666666666666 -0.6666666666666667 0  0.3333333333333333 -0.6666666666666667 0  0.3999999999999999 -0.6666666666666667 0  0.4666666666666666 -0.6666666666666667 0  0.5333333333333334 -0.6666666666666667 0  0.6000000000000001 -0.6666666666666667 0  0.6666666666666667 -0.6666666666666667 0  0.7333333333333334 -0.6666666666666667 0  0.8 -0.6666666666666667 0  0.8666666666666667 -0.6666666666666667 0  0.9333333333333333 -0.6666666666666667 0  1 -0.6666666666666667 0  -1 -0.6 0  -0.9333333333333333 -0.6 0  -0.8666666666666667 -0.6 0  -0.8 -0.6 0  -0.7333333333333334 -0.6 0  -0.6666666666666667 -0.6 0  -0.6 -0.6 0  -0.5333333333333333 -0.6 0  -0.4666666666666667 -0.6 0  -0.4 -0.6 0  -0.3333333333333334 -0.6 0  -0.2666666666666667 -0.6 0  -0.2 -0.6 0  -0.1333333333333333 -0.6 0  -0.06666666666666665 -0.6 0  0 -0.6 0  0.06666666666666665 -0.6 0  0.1333333333333333 -0.6 0  0.2 -0.6 0  0.2666666666666666 -0.6 0  0.3333333333333333 -0.6 0  0.3999999999999999 -0.6 0  0.4666666666666666 -0.6 0  0.5333333333333334 -0.6 0  0.6000000000000001 -0.6 0  0.6666666666666667 -0.6 0  0.7333333333333334 -0.6 0  0.8 -0.6 0  0.8666666666666667 -0.6 0  0.9333333333333333 -0.6 0  1 -0.6 0  -1 -0.5333333333333333 0  -0.9333333333333333 -0.5333333333333333 0  -0.8666666666666667 -0.5333333333333333 0  -0.8 -0.5333333333333333 0  -0.7333333333333334 -0.5333333333333333 0  -0.6666666666666667 -0.5333333333333333 0  -0.6 -0.5333333333333333 0  -0.5333333333333333 -0.5333333333333333 0  -0.4666666666666667 -0.5333333333333333 0  -0.4 -0.5333333333333333 0  -0.3333333333333334 -0.5333333333333333 0  -0.2666666666666667 -0.5333333333333333 0  -0.2 -0.5333333333333333 0  -0.1333333333333333 -0.5333333333333333 0  -0.06666666666666665 -0.5333333333333333 0  0 -0.5333333333333333 0  0.06666666666666665 -0.5333333333333333 0  0.1333333333333333 -0.5333333333333333 0  0.2 -0.5333333333333333 0  0.2666666666666666 -0.5333333333333333 0  0.3333333333333333 -0.5333333333333333 0  0.3999999999999999 -0.5333333333333333 0  0.4666666666666666 -0.5333333333333333 0  0.5333333333333334 -0.5333333333333333 0  0.6000000000000001 -0.5333333333333333 0  0.6666666666666667 -0.5333333333333333 0  0.7333333333333334 -0.5333333333333333 0  0.8 -0.5333333333333333 0  0.8666666666666667 -0.5333333333333333 0  0.9333333333333333 -0.5333333333333333 0  1 -0.5333333333333333 0  -1 -0.4666666666666667 0  -0.9333333333333333 -0.4666666666666667 0  -0.8666666666666667 -0.4666666666666667 0  -0.8 -0.4666666666666667 0  -0.7333333333333334 -0.4666666666666667 0  -0.6666666666666667 -0.4666666666666667 0  -0.6 -0.4666666666666667 0  -0.5333333333333333 -0.4666666666666667 0  -0.4666666666666667 -0.4666666666666667 0  -0.4 -0.4666666666666667 0  -0.3333333333333334 -0.4666666666666667 0  -0.2666666666666667 -0.4666666666666667 0  -0.2 -0.4666666666666667 0  -0.1333333333333333 -0.4666666666666667 0  -0.06666666666666665 -0.4666666666666667 0  0 -0.4666666666666667 0  0.06666666666666665 -0.4666666666666667 0  0.1333333333333333 -0.4666666666666667 0  0.2 -0.4666666666666667 0  0.2666666666666666 -0.4666666666666667 0  0.3333333333333333 -0.4666666666666667 0  0.3999999999999999 -0.4666666666666667 0  0.4666666666666666 -0.4666666666666667 0  0.5333333333333334 -0.4666666666666667 0  0.6000000000000001 -0.4666666666666667 0  0.6666666666666667 -0.4666666666666667 0  0.7333333333333334 -0.4666666666666667 0  0.8 -0.4666666666666667 0  0.8666666666666667 -0.4666666666666667 0  0.9333333333333333 -0.4666666666666667 0  1 -0.4666666666666667 0  -1 -0.4 0  -0.9333333333333333 -0.4 0  -0.8666666666666667 -0.4 0  -0.8 -0.4 0  -0.7333333333333334 -0.4 0  -0.6666666666666667 -0.4 0  -0.6 -0.4 0  -0.5333333333333333 -0.4 0  -0.4666666666666667 -0.4 0  -0.4 -0.4 0  -0.3333333333333334 -0.4 0  -0.2666666666666667 -0.4 0  -0.2 -0.4 0  -0.1333333333333333 -0.4 0  -0.06666666666666665 -0.4 0  0 -0.4 0  0.06666666666666665 -0.4 0  0.1333333333333333 -0.4 0  0.2 -0.4 0  0.2666666666666666 -0.4 0  0.3333333333333333 -0.4 0  0.3999999999999999 -0.4 0  0.4666666666666666 -0.4 0  0.5333333333333334 -0.4 0  0.6000000000000001 -0.4 0  0.6666666666666667 -0.4 0  0.7333333333333334 -0.4 0 
[...]
<PointData  Scalars="f_24"> 
<DataArray  type="Float64"  Name="f_24"  format="ascii">0.0000000000000000e+00  0.0000000000000000e+00  0.0000000000000000e+00  0.0000000000000000e+00  0.0000000000000000e+00  0.0000000000000000e+00  0.0000000000000000e+00  0.0000000000000000e+00  0.0000000000000000e+00  0.0000000000000000e+00  0.0000000000000000e+00  0.0000000000000000e+00  0.0000000000000000e+00  0.0000000000000000e+00  0.0000000000000000e+00  0.0000000000000000e+00  0.0000000000000000e+00  0.0000000000000000e+00  0.0000000000000000e+00  0.0000000000000000e+00  0.0000000000000000e+00  0.0000000000000000e+00  0.0000000000000000e+00  0.0000000000000000e+00  0.0000000000000000e+00  4.5917946030859810e-08  0.0000000000000000e+00  -7.3424886821584498e-08  0.0000000000000000e+00  0.0000000000000000e+00  1.1107146414047666e+01  0.0000000000000000e+00  1.0159144062959692e+07  1.1116060646194393e+07  1.6175936208241858e+07  1.1685181162139120e+07  1.5992408606732354e+07  9.1760165203612484e+06  1.5234357051826524e+07  6.5562679541992908e+06  1.4268503972174156e+07  4.7323955088158352e+06  1.3927799943914048e+07  2.9053592323820647e+06  1.4508133799693691e+07  1.5377207391836029e+06  1.5163276316183750e+07  1.0593927677828465e+06  1.6109669934196221e+07  1.0099121443316260e+06  1.7638556257716212e+07  1.6055817669843689e+06  2.0483687288369004e+07  1.0240813879581456e+06  2.9936724705829464e+07  -4.7110262516333824e+06  5.2161640400164634e+07  -1.5631832895676812e+07  8.6374769671129391e+07  -9.6098584166493434e+06  1.8777856469280329e+08  9.6986094109556138e+00  0.0000000000000000e+00  1.1116060628673073e+07  1.2250606157622719e+07  4.9993624316747859e+06  2.2996980012140884e+06  -3.1618872071657535e+06  -2.8908049369048458e+06  -7.0671116591837732e+06  -5.6544903297827980e+06  -7.8593634772981787e+06  -6.6135239429482920e+06  -8.6492314161871076e+06  -6.3122947746264599e+06  -8.9718186866900809e+06  -6.7695367895330153e+06  -8.4816423582162783e+06  -7.4252293844717406e+06  -8.5866747396800760e+06  -7.7373969115412459e+06  -8.7165610717785731e+06  -8.3453629638947351e+06  -9.9716379382368661e+06  -6.1398610121393967e+06  -1.7278443287144370e+07  -8.6281624714252737e+05  -2.8234745352506887e+07  2.7774756479131654e+06  -2.4420559976632535e+07  -1.5039949747078504e+07  -9.6098654083642773e+06  8.4284866483605665e+00  -1.0768680752494630e-08  1.6175936200739861e+07  4.9993624347674986e+06  1.8947836178435180e+06  -3.7650748236557366e+06  1.3057851894888547e+06  -3.9090337958661332e+06  3.4334681918636309e+06  -1.8059402541030061e+06  5.9202921436512899e+06  -1.8783312026328680e+06  8.6258093749242481e+06  -2.1923305432613622e+06  9.6174674375107046e+06  -1.9660561127415304e+06  1.0537876148540424e+07  -2.9307803810541881e+06  1.2160456079304148e+07  -3.8695650634091194e+06  1.2636552256299473e+07  -4.7277910323799998e+06  1.5346463537075711e+07  -9.6282818162962757e+06  2.5647626218664661e+07  -1.5986942861433318e+07  3.9655146845966257e+07  -2.5821785188958462e+07  4.7430309998125248e+07  -2.4420559495793208e+07  8.6374771029242337e+07  7.2873985138181308e+00  0.0000000000000000e+00  1.1685181107767070e+07  2.2996980182120018e+06  -3.7650748287279578e+06  6.1955588804736035e+05  -3.8675765324641014e+06  4.1027618743077287e+05  -2.9402048623248064e+06  -2.1138854569730174e+05  -4.7993460258073825e+06  -2.2071616884504669e+05  -5.6968769008899825e+06  -1.6774996145674153e+06  -5.4046453208348658e+06  -2.4280026558073331e+06  -6.1367260790418535e+06  -2.2096931307825767e+06  -6.2085529569184054e+06  -3.4011192418227089e+06  -4.8303561155414023e+06  -3.4802743879153025e+06  -8.0278074729078254e+06  1.9041960274212205e+05  -1.8430345990056440e+07  2.8848208710383805e+06  -2.6344128568647031e+07  1.0482338496982429e+07  -2.5821792544715337e+07  2.7774806123385890e+06  -1.5631838749257213e+07  6.2662954811183287e+00  -5.9017904053985089e-09  1.5992408591390086e+07  -3.1618871748713078e+06  1.3057851951337296e+06  -3.8675765356644220e+06  1.1426497843316628e+06  -2.6479169797282894e+06  2.5312047756224312e+06  -3.9697821737396293e+06  5.0258644190469226e+06  -3.6674795047572092e+06  5.7643613237402039e+06  -2.9778867529424783e+06  7.3866456821077242e+06  -4.0197769990917547e+06  9.4202735530676749e+06  -4.6813227979406752e+06  9.6507726457978617e+06  -4.3875829101221021e+06  1.0065334228560582e+07  -7.3119038651885772e+06  1.6765867668561809e+07  -1.2252510982410232e+07  2.7633248160634305e+07  -1.7609195404117972e+07  3.2433271749486730e+07  -2.6344137454360086e+07  3.9655155215761803e+07  -2.8234746258430205e+07  5.2161639935992226e+07  5.3564556394905809e+00  0.0000000000000000e+00  9.1760164412945937e+06  -2.8908048885899549e+06  -3.9090338410583832e+06  4.1027619747516105e+05  -2.6479169838715144e+06  1.9647361558438728e+06  -4.1130732122767749e+06  2.8428761434281962e+06  -3.9220816158560412e+06  1.4154999153131687e+06  -3.9537934421627885e+06  1.3853534321147169e+06  -5.2258900413530366e+06  1.3386844657280017e+06  -5.2634610239951545e+06  3.7959708361376062e+04  -4.1025162537102704e+06  -1.0562496197397257e+06  -4.4964644230369078e+06  8.6291506993916049e+05  -1.0543938683524273e+07  1.9389134271626908e+06  -1.5904339270380793e+07  5.0093709934828626e+06  -1.7609216693474140e+07  2.8848373213489931e+06  -1.5986949126751389e+07  -8.6281695743606065e+05  -4.7110282439209018e+06  4.5494871711939249e+00  -1.2476425418171884e-09  1.5234357043687899e+07  -7.0671116114799222e+06  3.4334681873717345e+06  -2.9402048442237689e+06  2.5312047795612752e+06  -4.1130732167204032e+06  3.4032174050638769e+06  -3.6786039387366483e+06  3.3776865972851021e+06  -3.7004607990011335e+06  5.5264938000791520e+06  -4.6047862092858041e+06  6.8375249412755193e+06  -4.4182877246241337e+06  7.4181831994021665e+06  -4.4766955669608228e+06  7.9818459103035545e+06  -5.2951696514539206e+06  1.0316558105501670e+07  -8.4372118787092231e+06  1.7320836077953935e+07  -1.1029352294848708e+07  2.1152026363159582e+07  -1.5904376251769612e+07  2.7633278640930019e+07  -1.8430352126645330e+07  2.5647620792210460e+07  -1.7278437413376633e+07  2.9936723759118084e+07  3.8373271106833484e+00  0.0000000000000000e+00  6.5562678496405613e+06  -5.6544902615751764e+06  -1.8059403285009195e+06  -2.1138851886208585e+05  -3.9697822144302609e+06  2.8428761607540241e+06  -3.6786039460382103e+06  2.8749667949768468e+06  -3.8225096513807992e+06  3.9916743524179989e+06  -4.6868966870204369e+06  3.1222395354783335e+06  -4.4228430236371113e+06  2.5273071812957088e+06  -4.8789022293034401e+06  2.1364254939180389e+06  -4.2085310481325788e+06  1.2964053482490927e+06  -5.4991285475804545e+06  2.3145897545797611e+06  -9.9713726796824001e+06  3.1256240281190993e+06  -1.1029421218443278e+07  1.9389688465057500e+06  -1.2252523234938577e+07  1.9040655724861051e+05  -9.6282718729202282e+06  -6.1398621298032794e+06  1.0240773455812765e+06  3.2122415930483341e+00  1.5138374336464247e-08  1.4268503972868448e+07  -7.8593634076934541e+06  5.9202921279906891e+06  -4.7993459999876516e+06  5.0258644371480206e+06  -3.9220816123377010e+06  3.3776866028269990e+06  -3.8225096552622952e+06  4.5417111652989481e+06  -4.5947124822843689e+06  4.4228621540034367e+06  -4.2238927637939742e+06  5.9668900050197616e+06  -5.3149872236308036e+06  7.1169673975948244e+06  -4.8591871077468768e+06  6.3492063038837025e+06  -4.9355722975039948e+06  9.9462159994126819e+06  -7.7031695474776132e+06  1.4216883223736500e+07  -9.9714905031767525e+06  1.7320932852152176e+07  -1.0543955678469066e+07  1.6765839350295534e+07  -8.0277824306951100e+06  1.5346459377235524e+07  -9.9716419561857618e+06  2.0483689937494904e+07  2.6668258738054211e+00  0.0000000000000000e+00  4.7323953833963666e+06  -6.6135238611029871e+06  -1.8783313238709560e+06  -2.2071610028109778e+05  -3.6674795850603245e+06  1.4154999417775171e+06  -3.7004608351970240e+06  3.9916743730464326e+06  -4.5947124945031106e+06  3.8513942912059082e+06  -4.1529471941109295e+06  4.8829753080256628e+06  -5.6552911782745952e+06  4.2348726295573944e+06  -4.5282326493162327e+06  2.1012406977810729e+06  -3.1528676360633895e+06  2.5346798937979299e+06  -7.2397665356452921e+06  4.0214031134257382e+06  -7.7033654852257008e+06  2.3147519243012457e+06  -8.4372388898325749e+06  8.6286028897415311e+05  -7.3118573769511664e+06  -3.4802821306921556e+06  -4.7278037538976828e+06  -8.3453542465860313e+06  1.6055791077755648e+06  2.1940042299353424e+00  3.9598199541539497e-09  1.3927799956839656e+07  -8.6492313411904909e+06  8.6258093759789225e+06  -5.6968768672300149e+06  5.7643613322341945e+06  -3.9537934222768866e+06  5.5264938265009336e+06  -4.6868966988771493e+06  4.4228621677921433e+06  -4.1529471988879750e+06  5.4862837544136001e+06  -5.9428523812031960e+06  5.2779868893586490e+06  -4.2211422691028882e+06  4.9919433434429811e+06  -3.9273898583255908e+06  5.7928671196530163e+06  -6.2510200854649991e+06  1.0421969434416484e+07  -7.2400708935650811e+06  9.9464735486586932e+06  -5.4991657295385906e+06  1.0316458555582123e+07  -4.4963781038616151e+06  1.0065319914032886e+07  -4.8303792442702353e+06  1.2636569924892707e+07  -8.7165620613249205e+06  1.7638553270352188e+07  1.7870301578087724e+00  0.0000000000000000e+00  2.9053590696423962e+06  -6.3122946602227921e+06  -2.1923307175234514e+06  -1.6774995263945779e+06  -2.9778868651209557e+06  1.3853534954285999e+06  -4.6047863038393250e+06  3.1222395776952300e+06  -4.2238928050482459e+06  4.8829753345536720e+06  -5.9428524031578135e+06  4.6867254765595105e+06  -3.6900548684228575e+06  4.1436890070987558e+06  -4.9400888576893881e+06  3.5439188008652544e+06  -4.6281904866553117e+06  4.2937000473731086e+06  -6.2514631547820754e+06  2.5350639004830313e+06  -4.9356225714976359e+06  1.2962370928054112e+06  -5.2950244513277337e+06  -1.0562723496910993e+06  -4.3876288208199181e+06  -3.4010842341681416e+06  -3.8695690209213775e+06  -7.7374050809049159e+06  1.0099145775737247e+06  1.4394861752605774e+00  8.3315508146393173e-06  1.4508133840510758e+07  -8.9718186089254282e+06  9.6174674416924156e+06  -5.4046452614352936e+06  7.3866457014025087e+06  -5.2258900361046717e+06  6.8375249872086691e+06  -4.4228430251762578e+06  5.9668900465870714e+06  -5.6552912146642450e+06  5.2779869245509645e+06  -3.6900548763555912e+06  4.7237394899029117e+06  -6.2002112380225640e+06  5.3479943855024530e+06  -3.2110537169779530e+06  4.5538443698363211e+06  -4.6287837673029127e+06  5.7933984764291290e+06  -3.1529287788865343e+06  6.3489422585280165e+06  -4.2083004268004894e+06  7.9818127967914445e+06  -4.1025968029883062e+06  9.6508354826073833e+06  -6.2085573685695594e+06  1.2160436912707206e+07  -8.5866638339290731e+06  1.6109670240649346e+07  1.1452839205526852e+00  0.0000000000000000e+00  1.5377205215815920e+06  -6.7695366506428514e+06  -1.9660563300311379e+06  -2.4280025360201374e+06  -4.0197771870482885e+06  1.3386845838163109e+06  -4.4182878691431982e+06  2.5273072621369017e+06  -5.3149873471201295e+06  4.2348727080558296e+06  -4.2211423289259039e+06  4.1436890382683310e+06  -6.2002112781352950e+06  5.3260706282905443e+06  -1.9474932870089642e+06  5.9925787866157677e+05  -3.2117799237309676e+06  3.5445945948077599e+06  -3.9274599790375712e+06  2.1008604603431653e+06  -4.8588508557574786e+06  2.1363827978599449e+06  -4.4768309805185581e+06  3.8065514610306862e+04  -4.6813303381542880e+06  -2.2097296539802928e+06  -2.9307598331298507e+06  -7.4252273926990256e+06  1.0593863060520284e+06  8.9866413258151578e-01  0.0000000000000000e+00  1.5163276384833654e+07  -8.4816422561068982e+06  1.0537876164292904e+07  -6.1367260288698832e+06  9.4202736181975491e+06  -5.2634610264687538e+06  7.4181832674420113e+06  -4.8789022620872045e+06  7.1169675009542732e+06  -4.5282327012090320e+06  4.9919434199797064e+06  -4.9400889455991173e+06  5.3479945008383142e+06  -1.9474933356485134e+06  -1.9900600869827505e+05  -1.9482980714104325e+06  5.3487778278390467e+06  -4.9401634225647617e+06  4.9914453988900073e+06  -4.5277814545924850e+06  7.1169179263616838e+06  -4.8791094536317224e+06  7.4183468071542317e+06  -5.2634687517377567e+06  9.4202086923361383e+06  -6.1366868270841297e+06  1.0537879924453489e+07  -8.4816563596485481e+06  1.5163281112064876e+07  6.9419665087797910e-01  0.0000000000000000e+00  1.0593924799779083e+06  -7.4252292085357383e+06  -2.9307806926435991e+06  -2.2096929319028086e+06  -4.6813230827915333e+06  3.7959880108421385e+04  -4.4766958041368742e+06  2.1364256729113264e+06  -4.8591873397877570e+06  2.1012408506391500e+06  -3.9273900566672147e+06  3.5439189795140577e+06  -3.2110538576412410e+06  5.9925787863274373e+05  -1.9482980227639370e+06  5.3268940755520985e+06  -6.2002876314301044e+06  4.1431013146493514e+06  -4.2205918072085101e+06  4.2348208012530357e+06  -5.3152774872998232e+06  2.5275391186300954e+06  -4.4182944024449987e+06  1.3385796179952451e+06  -4.0197132829368943e+06  -2.4279945703077414e+06  -1.9660854919458572e+06  -6.7695249277168568e+06  1.5377221286927615e+06  5.2678041560747546e-01  -7.7033590955826834e-09  1.6109670042124810e+07  -8.5866746287254188e+06  1.2160456155198073e+07  -6.2085529337897701e+06  9.6507727582712919e+06  -4.1025162802166091e+06  7.9818460639194045e+06  -4.2085311518189898e+06  6.3492064765123185e+06  -3.1528677315420201e+06  5.7928672796182046e+06  -4.6281905688163126e+06  4.5538443697601594e+06  -3.2117797829752038e+06  5.3487777125157760e+06  -6.2002875913122725e+06  4.7231179664157405e+06  -3.6894457451040265e+06  5.2779356477739066e+06  -5.6556561373639079e+06  5.9671886713184537e+06  -4.4228439357880596e+06  6.8373697957269205e+06  -5.2257934546376765e+06  7.3866601336597428e+06  -5.4046945734565100e+06  9.6174882332902625e+06  -8.9718116293535177e+06  1.4508126096241338e+07  3.9164345301732728e-01  0.0000000000000000e+00  1.0099117276006144e+06  -7.7373966399441715e+06  -3.8695655291641522e+06  -3.4011189555304744e+06  -4.3875833082501730e+06  -1.0562493561814025e+06  -5.2951700214836672e+06  1.2964055901410605e+06  -4.9355725640764218e+06  2.5346800278015081e+06  -6.2510202452616934e+06  4.2937000473268349e+06  -4.6287836850054339e+06  3.5445944160506143e+06  -4.9401633347133286e+06  4.1431012834622073e+06  -3.6894457371795508e+06  4.6866749286695765e+06  -5.9432627710355092e+06  4.8833234884705460e+06  -4.2238866751387231e+06  3.1220326993912421e+06  -4.6046555263131801e+06  1.3853778402981481e+06  -2.9779642984602964e+06  -1.6774661827075083e+06  -2.1923175489694518e+06  -6.3123130926452493e+06  2.9053627798423632e+06  2.8434294819962030e-01  0.0000000000000000e+00  1.7638556441434719e+07  -8.7165609499193709e+06  1.2636552384328526e+07  -4.8303560760498401e+06  1.0065334378066203e+07  -4.4964644534827434e+06  1.0316558271496875e+07  -5.4991285596474186e+06  9.9462160674614292e+06  -7.2397664811725710e+06  1.0421969434308954e+07  -6.2514629949453305e+06  5.7933983164008772e+06  -3.9274597805532743e+06  4.9914453224680312e+06  -4.2205917473269543e+06  5.2779356126082484e+06  -5.9432627490726244e+06  5.4866502528302744e+06  -4.1529355658406639e+06  4.4226153675361862e+06  -4.6867359429282239e+06  5.5265297233847873e+06  -3.9539015929062515e+06  5.7644086009793682e+06  -5.6968534015179416e+06  8.6257760726863872e+06  -8.6492224330394622e+06  1.3927805009280095e+07  2.0076509956552091e-01  0.0000000000000000e+00  1.6055811464545955e+06  -8.3453625917364592e+06  -4.7277916376761450e+06  -3.4802740692394590e+06  -7.3119043353471225e+06  8.6291531567270600e+05  -8.4372122027473040e+06  2.3145898439813103e+06  -7.7031696973337531e+06  4.0214031130048949e+06  -7.2400709475632701e+06  2.5350637664612732e+06  -3.1529286834765589e+06  2.1008603072656882e+06  -4.5277814029034469e+06  4.2348207226251746e+06  -5.6556561010430660e+06  4.8833234619122101e+06  -4.1529355610700385e+06  3.8511323892423948e+06  -4.5945345959069375e+06  3.9917201742002154e+06  -3.7005973621239439e+06  1.4155606491585094e+06  -3.6674450622391547e+06  -2.2076639960311656e+05  -1.8783186090600707e+06  -6.6135109606602192e+06  4.7323858919535456e+06  1.3712526437095890e-01  0.0000000000000000e+00  2.0483687517358564e+07  -9.9716376814118773e+06  1.5346463639428575e+07  -8.0278073378355941e+06  1.6765867803396756e+07  -1.0543938606253479e+07  1.7320836148464926e+07  -9.9713725393909551e+06  1.4216883223536028e+07  -7.7033653345955592e+06  9.9464734799187221e+06  -4.9356223048875183e+06  6.3489420861580055e+06  -4.8588506233225977e+06  7.1169178233498391e+06  -5.3152773635483943e+06  5.9671886299046306e+06  -4.2238866338021094e+06  4.4226153537801094e+06  -4.5945345836831443e+06  4.5417608915506620e+06  -3.8226629215107784e+06  3.3777568433978278e+06  -3.9220358533454798e+06  5.0257968145736055e+06  -4.7993284610663792e+06  5.9203139299205253e+06  -7.8593821665690988e+06  1.4268506183796512e+07  8.9967945293612628e-02  0.0000000000000000e+00  1.0240805274445228e+06  -6.1398605740972636e+06  -9.6282825662258975e+06  1.9041991262277207e+05  -1.2252511490657255e+07  1.9389135778888748e+06  -1.1029352569473799e+07  3.1256240273333103e+06  -9.9714906431626547e+06  2.3147518345756824e+06  -5.4991657166767595e+06  1.2962368507018022e+06  -4.2083003236723840e+06  2.1363826181716034e+06  -4.8791094214769797e+06  2.5275390373038682e+06  -4.4228439345751926e+06  3.1220326569875353e+06  -4.6867359311674340e+06  3.9917201535380422e+06  -3.8226629176342105e+06  2.8750405097137825e+06  -3.6785515234402940e+06  2.8427956194847119e+06  -3.9697617454947922e+06  -2.1135702448956968e+05  -1.8059700247483836e+06  -5.6544866926330458e+06  6.5562744820340332e+06  5.6166508286344778e-02  1.1029025241772487e-08  2.9936724871646106e+07  -1.7278442792499870e+07  2.5647626354923870e+07  -1.8430345785414971e+07  2.7633248310845185e+07  -1.5904339052926486e+07  2.1152026361435194e+07  -1.1029420940549621e+07  1.7320932780814305e+07  -8.4372385661322959e+06  1.0316458388910325e+07  -5.2950240807141569e+06  7.9818126442857515e+06  -4.4768307420928432e+06  7.4183467402573200e+06  -4.4182942570045460e+06  6.8373697504434409e+06  -4.6046554313473962e+06  5.5265296971921856e+06  -3.7005973258169633e+06  3.3777568378913896e+06  -3.6785515161355054e+06  3.4031320079902452e+06  -4.1130508489277116e+06  2.5312435471081445e+06  -2.9402428004306518e+06  3.4334715628514956e+06  -7.0670963214211557e+06  1.5234348970616216e+07  3.2923775975467189e-02  0.0000000000000000e+00  -4.7110275277328389e+06  -8.6281560231296474e+05  -1.5986943867349248e+07  2.8848211369813671e+06  -1.7609195944330506e+07  5.0093709944243971e+06  -1.5904376469752535e+07  1.9389686918507211e+06  -1.0543955753553476e+07  8.6286004432271246e+05  -4.4963780731116273e+06  -1.0562726146436168e+06  -4.1025967786124763e+06  3.8065340541476093e+04  -5.2634687513653366e+06  1.3385794981722224e+06  -5.2257934611652000e+06  1.3853777761153905e+06  -3.9539016133212470e+06  1.4155606224105495e+06  -3.9220358569934568e+06  2.8427956021203282e+06  -4.1130508444875889e+06  1.9647777161751941e+06  -2.6479601636083284e+06  4.1027947485505091e+05  -3.9090123406423940e+06  -2.8908189023045204e+06  9.1760155946199782e+06  1.7771434262476248e-02  0.0000000000000000e+00  5.2161640405414164e+07  -2.8234744579355732e+07  3.9655147089402534e+07  -2.6344128123199321e+07  3.2433271739795428e+07  -1.7609216138716109e+07  2.7633278495864119e+07  -1.2252522725828603e+07  1.6765839210420763e+07  -7.3118569087005043e+06  1.0065319765293749e+07  -4.3876284194127191e+06  9.6508353745164610e+06  -4.6813300487509454e+06  9.4202086313271932e+06  -4.0197130915870275e+06  7.3866601169484844e+06  -2.9779641844605240e+06  5.7644085936681572e+06  -3.6674449812424411e+06  5.0257967968307314e+06  -3.9697617046497362e+06  2.5312435432125852e+06  -2.6479601594607574e+06  1.1426529256626379e+06  -3.8675508240035460e+06  1.3057666280007849e+06  -3.1618883368808660e+06  1.5992415384920089e+07  8.5703290231849191e-03  0.0000000000000000e+00  -1.5631835086469587e+07  2.7774765255289078e+06  -2.5821786274538334e+07  1.0482338483507514e+07  -2.6344137949575476e+07  2.8848370261868038e+06  -1.843035