<?xml version="1.0"?>
<VTKFile type="UnstructuredGrid"  version="0.1"  >
<UnstructuredGrid>
<Piece  NumberOfPoints="961" NumberOfCells="1800">
<Points>
<DataArray  type="Float64"  NumberOfComponents="3"  format="ascii">-1 -1 0  -0.9333333333333333 -1 0  -0.8666666666666667 -1 0  -0.8 -1 0  -0.7333333333333334 -1 0  -0.6666666666666667 -1 0  -0.6 -1 0  -0.5333333333333333 -1 0  -0.4666666666666667 -1 0  -0.4 -1 0  -0.3333333333333334 -1 0  -0.2666666666666667 -1 0  -0.2 -1 0  -0.1333333333333333 -1 0  -0.06666666666666665 -1 0  0 -1 0  0.06666666666666665 -1 0  0.1333333333333333 -1 0  0.2 -1 0  0.2666666666666666 -1 0  0.3333333333333333 -1 0  0.3999999999999999 -1 0  0.4666666666666666 -1 0  0.5333333333333334 -1 0  0.6000000000000001 -1 0  0.6666666666666667 -1 0  0.7333333333333334 -1 0  0.8 -1 0  0.8666666666666667 -1 0  0.9333333333333333 -1 0  1 -1 0  -1 -0.9333333333333333 0  -0.9333333333333333 -0.9333333333333333 0  -0.8666666666666667 -0.9333333333333333 0  -0.8 -0.9333333333333333 0  -0.7333333333333334 -0.9333333333333333 0  -0.6666666666666667 -0.9333333333333333 0  -0.6 -0.9333333333333333 0  -0.5333333333333333 -0.9333333333333333 0  -0.4666666666666667 -0.9333333333333333 0  -0.4 -0.9333333333333333 0  -0.3333333333333334 -0.9333333333333333 0  -0.2666666666666667 -0.9333333333333333 0  -0.2 -0.9333333333333333 0  -0.1333333333333333 -0.9333333333333333 0  -0.06666666666666665 -0.9333333333333333 0  0 -0.9333333333333333 0  0.06666666666666665 -0.9333333333333333 0  0.1333333333333333 -0.9333333333333333 0  0.2 -0.9333333333333333 0  0.2666666666666666 -0.9333333333333333 0  0.3333333333333333 -0.9333333333333333 0  0.3999999999999999 -0.9333333333333333 0  0.4666666666666666 -0.9333333333333333 0  0.5333333333333334 -0.9333333333333333 0  0.6000000000000001 -0.9333333333333333 0  0.6666666666666667 -0.9333333333333333 0  0.7333333333333334 -0.9333333333333333 0  0.8 -0.9333333333333333 0  0.8666666666666667 -0.9333333333333333 0  0.9333333333333333 -0.9333333333333333 0  1 -0.9333333333333333 0  -1 -0.8666666666666667 0  -0.9333333333333333 -0.8666666666666667 0  -0.8666666666666667 -0.8666666666666667 0  -0.8 -0.8666666666666667 0  -0.7333333333333334 -0.8666666666666667 0  -0.6666666666666667 -0.8666666666666667 0  -0.6 -0.8666666666666667 0  -0.5333333333333333 -0.8666666666666667 0  -0.4666666666666667 -0.8666666666666667 0  -0.4 -0.8666666666666667 0  -0.3333333333333334 -0.8666666666666667 0  -0.2666666666666667 -0.8666666666666667 0  -0.2 -0.8666666666666667 0  -0.1333333333333333 -0.8666666666666667 0  -0.06666666666666665 -0.8666666666666667 0  0 -0.8666666666666667 0  0.06666666666666665 -0.8666666666666667 0  0.1333333333333333 -0.8666666666666667 0  0.2 -0.8666666666666667 0  0.2666666666666666 -0.8666666666666667 0  0.3333333333333333 -0.8666666666666667 0  0.3999999999999999 -0.8666666666666667 0  0.4666666666666666 -0.8666666666666667 0  0.5333333333333334 -0.8666666666666667 0  0.6000000000000001 -0.8666666666666667 0  0.6666666666666667 -0.8666666666666667 0  0.7333333333333334 -0.8666666666666667 0  0.8 -0.8666666666666667 0  0.8666666666666667 -0.8666666666666667 0  0.9333333333333333 -0.8666666666666667 0  1 -0.8666666666666667 0  -1 -0.8 0  -0.9333333333333333 -0.8 0  -0.8666666666666667 -0.8 0  -0.8 -0.8 0  -0.7333333333333334 -0.8 0  -0.6666666666666667 -0.8 0  -0.6 -0.8 0  -0.5333333333333333 -0.8 0  -0.4666666666666667 -0.8 0  -0.4 -0.8 0  -0.3333333333333334 -0.8 0  -0.2666666666666667 -0.8 0  -0.2 -0.8 0  -0.1333333333333333 -0.8 0  -0.06666666666666665 -0.8 0  0 -0.8 0  0.06666666666666665 -0.8 0  0.1333333333333333 -0.8 0  0.2 -0.8 0  0.2666666666666666 -0.8 0  0.3333333333333333 -0.8 0  0.3999999999999999 -0.8 0  0.4666666666666666 -0.8 0  0.5333333333333334 -0.8 0  0.6000000000000001 -0.8 0  0.6666666666666667 -0.8 0  0.7333333333333334 -0.8 0  0.8 -0.8 0  0.8666666666666667 -0.8 0  0.9333333333333333 -0.8 0  1 -0.8 0  -1 -0.7333333333333334 0  -0.9333333333333333 -0.7333333333333334 0  -0.8666666666666667 -0.7333333333333334 0  -0.8 -0.7333333333333334 0  -0.7333333333333334 -0.7333333333333334 0  -0.6666666666666667 -0.7333333333333334 0  -0.6 -0.7333333333333334 0  -0.5333333333333333 -0.7333333333333334 0  -0.4666666666666667 -0.7333333333333334 0  -0.4 -0.7333333333333334 0  -0.3333333333333334 -0.7333333333333334 0  -0.2666666666666667 -0.7333333333333334 0  -0.2 -0.7333333333333334 0  -0.1333333333333333 -0.7333333333333334 0  -0.06666666666666665 -0.7333333333333334 0  0 -0.7333333333333334 0  0.06666666666666665 -0.7333333333333334 0  0.1333333333333333 -0.7333333333333334 0  0.2 -0.7333333333333334 0  0.2666666666666666 -0.7333333333333334 0  0.3333333333333333 -0.7333333333333334 0  0.3999999999999999 -0.7333333333333334 0  0.4666666666666666 -0.7333333333333334 0  0.5333333333333334 -0.7333333333333334 0  0.6000000000000001 -0.7333333333333334 0  0.6666666666666667 -0.7333333333333334 0  0.7333333333333334 -0.7333333333333334 0  0.8 -0.7333333333333334 0  0.8666666666666667 -0.7333333333333334 0  0.9333333333333333 -0.7333333333333334 0  1 -0.7333333333333334 0  -1 -0.6666666666666667 0  -0.9333333333333333 -0.6666666666666667 0  -0.8666666666666667 -0.6666666666666667 0  -0.8 -0.6666666666666667 0  -0.7333333333333334 -0.6666666666666667 0  -0.6666666666666667 -0.6666666666666667 0  -0.6 -0.6666666666666667 0  -0.5333333333333333 -0.6666666666666667 0  -0.4666666666666667 -0.6666666666666667 0  -0.4 -0.6666666666666667 0  -0.3333333333333334 -0.6666666666666667 0  -0.2666666666666667 -0.6666666666666667 0  -0.2 -0.6666666666666667 0  -0.1333333333333333 -0.6666666666666667 0  -0.06666666666666665 -0.6666666666666667 0  0 -0.6666666666666667 0  0.06666666666666665 -0.6666666666666667 0  0.1333333333333333 -0.6666666666666667 0  0.2 -0.6666666666666667 0  0.2666666666666666 -0.6666666666666667 0  0.3333333333333333 -0.6666666666666667 0  0.3999999999999999 -0.6666666666666667 0  0.4666666666666666 -0.6666666666666667 0  0.5333333333333334 -0.6666666666666667 0  0.6000000000000001 -0.6666666666666667 0  0.6666666666666667 -0.6666666666666667 0  0.7333333333333334 -0.6666666666666667 0  0.8 -0.6666666666666667 0  0.8666666666666667 -0.6666666666666667 0  0.9333333333333333 -0.6666666666666667 0  1 -0.6666666666666667 0  -1 -0.6 0  -0.9333333333333333 -0.6 0  -0.8666666666666667 -0.6 0  -0.8 -0.6 0  -0.7333333333333334 -0.6 0  -0.6666666666666667 -0.6 0  -0.6 -0.6 0  -0.5333333333333333 -0.6 0  -0.4666666666666667 -0.6 0  -0.4 -0.6 0  -0.3333333333333334 -0.6 0  -0.2666666666666667 -0.6 0  -0.2 -0.6 0  -0.1333333333333333 -0.6 0  -0.06666666666666665 -0.6 0  0 -0.6 0  0.06666666666666665 -0.6 0  0.1333333333333333 -0.6 0  0.2 -0.6 0  0.2666666666666666 -0.6 0  0.3333333333333333 -0.6 0  0.3999999999999999 -0.6 0  0.4666666666666666 -0.6 0  0.5333333333333334 -0.6 0  0.6000000000000001 -0.6 0  0.6666666666666667 -0.6 0  0.7333333333333334 -0.6 0  0.8 -0.6 0  0.8666666666666667 -0.6 0  0.9333333333333333 -0.6 0  1 -0.6 0  -1 -0.5333333333333333 0  -0.9333333333333333 -0.5333333333333333 0  -0.8666666666666667 -0.5333333333333333 0  -0.8 -0.5333333333333333 0  -0.7333333333333334 -0.5333333333333333 0  -0.6666666666666667 -0.5333333333333333 0  -0.6 -0.5333333333333333 0  -0.5333333333333333 -0.5333333333333333 0  -0.4666666666666667 -0.5333333333333333 0  -0.4 -0.5333333333333333 0  -0.3333333333333334 -0.5333333333333333 0  -0.2666666666666667 -0.5333333333333333 0  -0.2 -0.5333333333333333 0  -0.1333333333333333 -0.5333333333333333 0  -0.06666666666666665 -0.5333333333333333 0  0 -0.5333333333333333 0  0.06666666666666665 -0.5333333333333333 0  0.1333333333333333 -0.5333333333333333 0  0.2 -0.5333333333333333 0  0.2666666666666666 -0.5333333333333333 0  0.3333333333333333 -0.5333333333333333 0  0.3999999999999999 -0.5333333333333333 0  0.4666666666666666 -0.5333333333333333 0  0.5333333333333334 -0.5333333333333333 0  0.6000000000000001 -0.5333333333333333 0  0.6666666666666667 -0.5333333333333333 0  0.7333333333333334 -0.5333333333333333 0  0.8 -0.5333333333333333 0  0.8666666666666667 -0.5333333333333333 0  0.9333333333333333 -0.5333333333333333 0  1 -0.5333333333333333 0  -1 -0.4666666666666667 0  -0.9333333333333333 -0.4666666666666667 0  -0.8666666666666667 -0.4666666666666667 0  -0.8 -0.4666666666666667 0  -0.7333333333333334 -0.4666666666666667 0  -0.6666666666666667 -0.4666666666666667 0  -0.6 -0.4666666666666667 0  -0.5333333333333333 -0.4666666666666667 0  -0.4666666666666667 -0.4666666666666667 0  -0.4 -0.4666666666666667 0  -0.3333333333333334 -0.4666666666666667 0  -0.2666666666666667 -0.4666666666666667 0  -0.2 -0.4666666666666667 0  -0.1333333333333333 -0.4666666666666667 0  -0.06666666666666665 -0.4666666666666667 0  0 -0.4666666666666667 0  0.06666666666666665 -0.4666666666666667 0  0.1333333333333333 -0.4666666666666667 0  0.2 -0.4666666666666667 0  0.2666666666666666 -0.4666666666666667 0  0.3333333333333333 -0.4666666666666667 0  0.3999999999999999 -0.4666666666666667 0  0.4666666666666666 -0.4666666666666667 0  0.5333333333333334 -0.4666666666666667 0  0.6000000000000001 -0.4666666666666667 0  0.6666666666666667 -0.4666666666666667 0  0.7333333333333334 -0.4666666666666667 0  0.8 -0.4666666666666667 0  0.8666666666666667 -0.4666666666666667 0  0.9333333333333333 -0.4666666666666667 0  1 -0.4666666666666667 0  -1 -0.4 0  -0.9333333333333333 -0.4 0  -0.8666666666666667 -0.4 0  -0.8 -0.4 0  -0.7333333333333334 -0.4 0  -0.6666666666666667 -0.4 0  -0.6 -0.4 0  -0.5333333333333333 -0.4 0  -0.4666666666666667 -0.4 0  -0.4 -0.4 0  -0.3333333333333334 -0.4 0  -0.2666666666666667 -0.4 0  -0.2 -0.4 0  -0.1333333333333333 -0.4 0  -0.06666666666666665 -0.4 0  0 -0.4 0  0.06666666666666665 -0.4 0  0.1333333333333333 -0.4 0  0.2 -0.4 0  0.2666666666666666 -0.4 0  0.3333333333333333 -0.4 0  0.3999999999999999 -0.4 0  0.4666666666666666 -0.4 0  0.5333333333333334 -0.4 0  0.6000000000000001 -0.4 0  0.6666666666666667 -0.4 0  0.7333333333333334 -0.4 0 
[...]
<PointData  Scalars="f_24"> 
<DataArray  type="Float64"  Name="f_24"  format="ascii">0.0000000000000000e+00  0.0000000000000000e+00  0.0000000000000000e+00  0.0000000000000000e+00  0.0000000000000000e+00  0.0000000000000000e+00  0.0000000000000000e+00  0.0000000000000000e+00  0.0000000000000000e+00  0.0000000000000000e+00  0.0000000000000000e+00  0.0000000000000000e+00  0.0000000000000000e+00  0.0000000000000000e+00  0.0000000000000000e+00  0.0000000000000000e+00  0.0000000000000000e+00  0.0000000000000000e+00  0.0000000000000000e+00  0.0000000000000000e+00  0.0000000000000000e+00  0.0000000000000000e+00  0.0000000000000000e+00  0.0000000000000000e+00  0.0000000000000000e+00  5.2635655568901131e-08  0.0000000000000000e+00  2.4474962273861502e-08  0.0000000000000000e+00  0.0000000000000000e+00  1.1445409381640964e+01  0.0000000000000000e+00  1.0465061199857175e+07  1.1447849289260998e+07  1.6658842639068883e+07  1.2028646741248159e+07  1.6464714678595742e+07  9.4387163809339572e+06  1.5679869317320809e+07  6.7360893747519692e+06  1.4682066749141674e+07  4.8546451452960745e+06  1.4329406684511567e+07  2.9707839669213085e+06  1.4926573568197595e+07  1.5609642859630419e+06  1.5601415289044429e+07  1.0680845443291103e+06  1.6576909071061175e+07  1.0176534204183917e+06  1.8153211007860310e+07  1.6326533638298013e+06  2.1086552998673838e+07  1.0354362034453475e+06  3.0829945140551079e+07  -4.8713230882432833e+06  5.3735295592552245e+07  -1.6120486913610399e+07  8.8995262034259662e+07  -9.9095231016331688e+06  1.9349354111891815e+08  9.9939760405634601e+00  0.0000000000000000e+00  1.1447849271202525e+07  1.2611068439352669e+07  5.1343247212015660e+06  2.3491406015602536e+06  -3.2807655777554340e+06  -3.0022776279450986e+06  -7.3057090517209889e+06  -5.8493533326985799e+06  -8.1202508423947049e+06  -6.8351622066585850e+06  -8.9315509124806933e+06  -6.5222760148069831e+06  -9.2618688762390018e+06  -6.9919200875800634e+06  -8.7559273293653298e+06  -7.6674835175073789e+06  -8.8648001921630297e+06  -7.9904822885701014e+06  -9.0005362529299054e+06  -8.6192523302961104e+06  -1.0296279986694900e+07  -6.3488762354276534e+06  -1.7827374761859253e+07  -9.1193216506603919e+05  -2.9116725569519211e+07  2.8417457701775758e+06  -2.5181530183447469e+07  -1.5510785438564008e+07  -9.9095303062737510e+06  8.6851722818277821e+00  -1.1335453423678558e-09  1.6658842631331166e+07  5.1343247243850762e+06  1.9306952504296869e+06  -3.9028511393109467e+06  1.3238492611519336e+06  -4.0463962640794474e+06  3.5243090390792307e+06  -1.8695889598721701e+06  6.0969626677977378e+06  -1.9345913014150574e+06  8.8933383288622666e+06  -2.2511814424413834e+06  9.9204891949329283e+06  -2.0144701170814212e+06  1.0870712054377753e+07  -3.0085421636088854e+06  1.2540990137362875e+07  -3.9793687352117561e+06  1.3026421784064382e+07  -4.8705190240607290e+06  1.5810638970936758e+07  -9.9295401598382480e+06  2.6415746913014024e+07  -1.6491223714524694e+07  4.0842023727525480e+07  -2.6630494962708555e+07  4.8853421201884300e+07  -2.5181529687961254e+07  8.8995263433739245e+07  7.5093332746091157e+00  0.0000000000000000e+00  1.2028646685209634e+07  2.3491406190694440e+06  -3.9028511445409711e+06  6.1812711673398642e+05  -3.9990473872697894e+06  4.1768599659840844e+05  -3.0258216134241363e+06  -2.0558880528668160e+05  -4.9262524866659176e+06  -2.0267595645782724e+05  -5.8415378339811824e+06  -1.6969409837257429e+06  -5.5357976371979788e+06  -2.4675393757869066e+06  -6.2889274878929574e+06  -2.2426683699019295e+06  -6.3643501936903857e+06  -3.4732681227333532e+06  -4.9488621480722390e+06  -3.5617035911155124e+06  -8.2531408279323569e+06  2.0851980063371849e+05  -1.8987388646047462e+07  2.9681999614628893e+06  -2.7159229339253504e+07  1.0782250542208392e+07  -2.6630502542477738e+07  2.8417508857989949e+06  -1.6120492945448855e+07  6.4571325896108167e+00  6.5766966310440886e-11  1.6464714662772788e+07  -3.2807655444860789e+06  1.3238492669636023e+06  -3.9990473905684808e+06  1.1755924619002657e+06  -2.7179665151578854e+06  2.6297332418507203e+06  -4.0610374327953155e+06  5.2140073306872528e+06  -3.7409766364068049e+06  5.9795408282215726e+06  -3.0285442939085416e+06  7.6515339605387514e+06  -4.1024932520097983e+06  9.7467178985177428e+06  -4.7843214856873937e+06  9.9843415905180350e+06  -4.4815676610195870e+06  1.0410988292637864e+07  -7.4969569224495115e+06  1.7310971969138425e+07  -1.2596466626583537e+07  2.8495997460131109e+07  -1.8134764383708555e+07  3.3419668127374731e+07  -2.7159238495575778e+07  4.0842032352224216e+07  -2.9116726503022924e+07  5.3735295114255384e+07  5.5195839996339533e+00  0.0000000000000000e+00  9.4387162994438782e+06  -3.0022775781684420e+06  -4.0463963106531524e+06  4.1768600694831694e+05  -2.7179665194271477e+06  2.0488436599222270e+06  -4.2046409772760011e+06  2.9680480376250180e+06  -4.0016329020711342e+06  1.4974888317519086e+06  -4.0374312289017704e+06  1.4619860610590314e+06  -5.3525586864729077e+06  1.4106373224613261e+06  -5.3930356114953710e+06  7.0219530000120372e+04  -4.1951472624514028e+06  -1.0542650062812211e+06  -4.5970624753540894e+06  9.2748000078748283e+05  -1.0825881112091394e+07  2.0357782798790594e+06  -1.6355660944404757e+07  5.1858403764964212e+06  -1.8134786321422402e+07  2.9682169127610978e+06  -1.6491230170644216e+07  -9.1193289697972406e+05  -4.8713251411913158e+06  4.6880396827201398e+00  2.4952850836343768e-09  1.5679869308917152e+07  -7.3057090025735833e+06  3.5243090344457971e+06  -3.0258215947710350e+06  2.6297332459106753e+06  -4.2046409818539890e+06  3.5461022962180260e+06  -3.7513427957966723e+06  3.5165453255397547e+06  -3.7818011787748882e+06  5.7215528847611509e+06  -4.7220929165305477e+06  7.0659297188756131e+06  -4.5343032564326106e+06  7.6621023779710671e+06  -4.5944904073570240e+06  8.2450797388425553e+06  -5.4335719443612406e+06  1.0657323821102710e+07  -8.6631284879120272e+06  1.7883791258197851e+07  -1.1326680791195245e+07  2.1834620226515584e+07  -1.6355699052045511e+07  2.8496028868688416e+07  -1.8987394969523508e+07  2.6415741321304098e+07  -1.7827368709197573e+07  3.0829944165022187e+07  3.9541911194664050e+00  0.0000000000000000e+00  6.7360892669921312e+06  -5.8493532624222320e+06  -1.8695890365390517e+06  -2.0558877763198383e+05  -4.0610374747233260e+06  2.9680480554799540e+06  -3.7513428033203692e+06  2.9972223647281919e+06  -3.9108967885649116e+06  4.1347334109574715e+06  -4.8134282531915130e+06  3.2297206163460184e+06  -4.5475848362186439e+06  2.6128882209046073e+06  -5.0192680879661273e+06  2.2101546213369928e+06  -4.3266524006349482e+06  1.3483819989031823e+06  -5.6503404203587668e+06  2.4065088477755366e+06  -1.0247269746382093e+07  3.2550034656322729e+06  -1.1326751813826310e+07  2.0358353869894121e+06  -1.2596479252258319e+07  2.0850635784472205e+05  -9.9295299136376791e+06  -6.3488773871182054e+06  1.0354320379746895e+06  3.3100689137107242e+00  4.3252498104183566e-08  1.4682066749839995e+07  -8.1202507706766604e+06  6.0969626516570207e+06  -4.9262524600568013e+06  5.2140073493416496e+06  -4.0016328984440495e+06  3.5165453312506755e+06  -3.9108967925621634e+06  4.6997476587846363e+06  -4.7216030051301923e+06  4.5659616525974190e+06  -4.3470106091830432e+06  6.1524839332471220e+06  -5.4737827430385444e+06  7.3365519107372109e+06  -5.0040476364688147e+06  6.5465530957495123e+06  -5.0802020307588959e+06  1.0257714243323738e+07  -7.9245805826470815e+06  1.4669564803167138e+07  -1.0247391158135934e+07  1.7883890979608532e+07  -1.0825898624610361e+07  1.7310942788448352e+07  -8.2531150230725557e+06  1.5810634684410904e+07  -1.0296284126998104e+07  2.1086555728490900e+07  2.7480429008050420e+00  0.0000000000000000e+00  4.8546450160422847e+06  -6.8351621223259410e+06  -1.9345914263468573e+06  -2.0267588580137250e+05  -3.7409767191542708e+06  1.4974888590229687e+06  -3.7818012160725566e+06  4.1347334322142806e+06  -4.7216030177234830e+06  3.9759289416979821e+06  -4.2755953750295294e+06  5.0337012523238063e+06  -5.8263641293348866e+06  4.3646192818764942e+06  -4.6654427753791148e+06  2.1660485932620936e+06  -3.2476489019089574e+06  2.6140151668710997e+06  -7.4562459254226433e+06  4.1513096569297398e+06  -7.9247824875878720e+06  2.4066759563004943e+06  -8.6631563216467835e+06  9.2742355149261735e+05  -7.4969090184396422e+06  -3.5617115696965726e+06  -4.8705321330068056e+06  -8.6192433474961445e+06  1.6326506236487927e+06  2.2608216062500679e+00  7.9196399083078995e-09  1.4329406697817082e+07  -8.9315508352036718e+06  8.8933383299485855e+06  -5.8415377992928158e+06  5.9795408369743582e+06  -4.0374312084084731e+06  5.7215529119880004e+06  -4.8134282654093690e+06  4.5659616668058950e+06  -4.2755953799497569e+06  5.6549127338254461e+06  -6.1232594697537459e+06  5.4389285817754883e+06  -4.3496123142427942e+06  5.1440253987317709e+06  -4.0468988498920905e+06  5.9695345262991069e+06  -6.4407210668406254e+06  1.0741054997968402e+07  -7.4565595524212336e+06  1.0257979636112181e+07  -5.6503787346754996e+06  1.0657221239436569e+07  -4.5969735273696231e+06  1.0410973542164426e+07  -4.9488859811786320e+06  1.3026439990745546e+07  -9.0005372726044077e+06  1.8153207929527279e+07  1.8414533284257184e+00  0.0000000000000000e+00  2.9707837992148572e+06  -6.5222758969203113e+06  -2.2511816220108620e+06  -1.6969408928647162e+06  -3.0285444095027503e+06  1.4619861263025177e+06  -4.7220930139641939e+06  3.2297206598484954e+06  -4.3470106516936747e+06  5.0337012796597546e+06  -6.1232594923794782e+06  4.8295613712271405e+06  -3.8024448812549766e+06  4.2698459598683361e+06  -5.0905636952537168e+06  3.6518169016948375e+06  -4.7691361974189226e+06  4.4245949129162570e+06  -6.4411776296301549e+06  2.6144108682989464e+06  -5.0802538358280761e+06  1.3482086193181120e+06  -5.4334223222337058e+06  -1.0542884284656614e+06  -4.4816149699089462e+06  -3.4732320489396043e+06  -3.9793728132493817e+06  -7.9904907067208244e+06  1.0176559277720951e+06  1.4833250558606688e+00  3.7322246130270553e-06  1.4926573610249773e+07  -9.2618687961063478e+06  9.9204891992411446e+06  -5.5357975759874508e+06  7.6515339804211706e+06  -5.3525586810638979e+06  7.0659297662073737e+06  -4.5475848378047701e+06  6.1524839760803385e+06  -5.8263641668324545e+06  5.4389286180389905e+06  -3.8024448894253699e+06  4.8675519229978397e+06  -6.3890664062875444e+06  5.5108281807571398e+06  -3.3088805435707984e+06  4.6924986846301118e+06  -4.7697475461483877e+06  5.9700820652970010e+06  -3.2477119068068434e+06  6.5462810090135448e+06  -4.3264147558351411e+06  8.2450456168721411e+06  -4.1952302648183415e+06  9.9844063409884330e+06  -6.3643547396984780e+06  1.2540970387055039e+07  -8.8647889542771075e+06  1.6576909386852460e+07  1.1801630085975738e+00  0.0000000000000000e+00  1.5609640617298300e+06  -6.9919199444585294e+06  -2.0144703409884972e+06  -2.4675392523505781e+06  -4.1024934456900917e+06  1.4106374441541580e+06  -4.5343034053632831e+06  2.6128883042049343e+06  -5.4737828702908233e+06  4.3646193627631692e+06  -4.3496123758887025e+06  4.2698459919882305e+06  -6.3890664476264454e+06  5.4882513297514878e+06  -2.0068163150046431e+06  6.1748801844508166e+05  -3.3096288666122090e+06  3.6525132766257497e+06  -4.0469711061002105e+06  2.1656567758671469e+06  -5.0037011440831805e+06  2.2101106249883650e+06  -4.5946299448705902e+06  7.0328558526354595e+04  -4.7843292555371225e+06  -2.2427060054000178e+06  -3.0085209899079935e+06  -7.6674814650719445e+06  1.0680778858118642e+06  9.2603252992002738e-01  -7.4976577064942699e-09  1.5601415359780880e+07  -8.7559272241419852e+06  1.0870712070606267e+07  -6.2889274361928720e+06  9.7467179656296931e+06  -5.3930356140459422e+06  7.6621024480744489e+06  -5.0192681217427859e+06  7.3365520172439655e+06  -4.6654428288510637e+06  5.1440254775994830e+06  -5.0905637858355949e+06  5.5108282996038198e+06  -2.0068163651190933e+06  -2.0509046378033963e+05  -2.0076456087386482e+06  5.5116354824599260e+06  -5.0906405309644220e+06  5.1435122895082897e+06  -4.6649778397281244e+06  7.3365009328781525e+06  -5.0194816232121214e+06  7.6622709683198091e+06  -5.3930435745818783e+06  9.7466510624809563e+06  -6.2888870405364064e+06  1.0870715945283933e+07  -8.7559417572018709e+06  1.5601420230980713e+07  7.1533808635256024e-01  0.0000000000000000e+00  1.0680842477622030e+06  -7.6674833362093363e+06  -3.0085424846877400e+06  -2.2426681649691304e+06  -4.7843217792136073e+06  7.0219706983050681e+04  -4.5944906517574405e+06  2.2101548057785146e+06  -5.0040478755778875e+06  2.1660487507732380e+06  -4.0468990542766228e+06  3.6518170857819309e+06  -3.3088806885207705e+06  6.1748801840989804e+05  -2.0076455586049662e+06  5.4890998547144122e+06  -6.3891451262205280e+06  4.2692403695220426e+06  -4.3490450882860329e+06  4.3645658751612576e+06  -5.4740818465537317e+06  2.6131272217800533e+06  -4.5343101376243168e+06  1.4105292816391829e+06  -4.1024275954116341e+06  -2.4675310440481985e+06  -2.0145003910163101e+06  -6.9919078645164818e+06  1.5609657177852010e+06  5.4282326766064115e-01  -3.8516795477913417e-09  1.6576909182278365e+07  -8.8648000778230280e+06  1.2540990215565069e+07  -6.3643501698610820e+06  9.9843417064152956e+06  -4.1951472897612453e+06  8.2450798971238248e+06  -4.3266525074801864e+06  6.5465532736386573e+06  -3.2476490002964507e+06  5.9695346911391104e+06  -4.7691362820837125e+06  4.6924986845613960e+06  -3.3096287215707055e+06  5.5116353636269970e+06  -6.3891450848851008e+06  4.8669114713032348e+06  -3.8018172073697872e+06  5.4388757796518914e+06  -5.8267402030831054e+06  6.1527916952873105e+06  -4.5475857761475621e+06  7.0657698484421866e+06  -5.3524591582538979e+06  7.6515488522054078e+06  -5.5358483897841172e+06  9.9205106240386590e+06  -9.2618616039738376e+06  1.4926565630132157e+07  4.0357077861572865e-01  0.0000000000000000e+00  1.0176529910046749e+06  -7.9904820086934334e+06  -3.9793692151527996e+06  -3.4732678277245653e+06  -4.4815680712711895e+06  -1.0542647346943370e+06  -5.4335723256616890e+06  1.3483822481648820e+06  -5.0802023054508343e+06  2.6140153049529046e+06  -6.4407212315058568e+06  4.4245949128742591e+06  -4.7697474613501076e+06  3.6525130924223461e+06  -5.0906404404363139e+06  4.2692403373839660e+06  -3.8018171992004262e+06  4.8295092839263491e+06  -6.1236823578172447e+06  5.0340600364408111e+06  -4.3470043351022545e+06  3.2295074811612354e+06  -4.7219582536707874e+06  1.4620112125816050e+06  -3.0286242010398991e+06  -1.6969065337134143e+06  -2.2511680524145742e+06  -6.5222948906949228e+06  2.9707876224075481e+06  2.9300248017000874e-01  0.0000000000000000e+00  1.8153211197181825e+07  -9.0005361273523401e+06  1.3026421915990548e+07  -4.9488621073826170e+06  1.0410988446693860e+07  -4.5970625067232996e+06  1.0657323992150078e+07  -5.6503404328032415e+06  1.0257714313442074e+07  -7.4562458692863109e+06  1.0741054997855980e+07  -6.4411774649228714e+06  5.9700819003989603e+06  -4.0469709015682340e+06  5.1435122107620062e+06  -4.3490450265825912e+06  5.4388757434166949e+06  -6.1236823351886841e+06  5.6552903937782636e+06  -4.2755833926247591e+06  4.5657073503617710e+06  -4.8132626137127541e+06  5.7215899020950347e+06  -4.0375426733244290e+06  5.9795895452672048e+06  -5.8415136189436745e+06  8.8933040124207810e+06  -8.9315416557578780e+06  1.4329411904128311e+07  2.0687930710692026e-01  0.0000000000000000e+00  1.6326527244136096e+06  -8.6192519467921183e+06  -4.8705196477904553e+06  -3.5617032627371084e+06  -7.4969574069291409e+06  9.2748025401132938e+05  -8.6631288218182568e+06  2.4065089399012094e+06  -7.9245807370654540e+06  4.1513096564953662e+06  -7.4565596080650231e+06  2.6144107301961244e+06  -3.2477118084954377e+06  2.1656566181306383e+06  -4.6649777864670353e+06  4.3645657941418970e+06  -5.8267401656549731e+06  5.0340600090722423e+06  -4.2755833877058011e+06  3.9756590636307988e+06  -4.7214197013085922e+06  4.1347806282208734e+06  -3.7819419008631231e+06  1.4975514152186566e+06  -3.7409411449566721e+06  -2.0272771696757333e+05  -1.9345783243119598e+06  -6.8351488290062556e+06  4.8546352355410755e+06  1.4130135039062924e-01  0.0000000000000000e+00  2.1086553234648701e+07  -1.0296279722036673e+07  1.5810639076402951e+07  -8.2531406887460472e+06  1.7310972108068921e+07  -1.0825881032458715e+07  1.7883791330850985e+07  -1.0247269601812400e+07  1.4669564802943163e+07  -7.9247823323725704e+06  1.0257979565280452e+07  -5.0802535610917425e+06  6.5462808313962081e+06  -5.0037009045744287e+06  7.3365008267315691e+06  -5.4740817190319505e+06  6.1527916526124710e+06  -4.3470042925053816e+06  4.5657073361871988e+06  -4.7214196887121964e+06  4.6997988994258121e+06  -3.9110547264635898e+06  3.5166177109651174e+06  -4.0015857458835165e+06  5.2139376673523886e+06  -4.9262343869965542e+06  6.0969851175564006e+06  -8.1202701008448759e+06  1.4682069028102264e+07  9.2708002942949633e-02  0.0000000000000000e+00  1.0354353167386302e+06  -6.3488757840323383e+06  -9.9295409326039311e+06  2.0852011995419668e+05  -1.2596467150315529e+07  2.0357784351996847e+06  -1.1326681074179417e+07  3.2550034648263785e+06  -1.0247391302379081e+07  2.4066758638446536e+06  -5.6503787214344824e+06  1.3482083698411954e+06  -4.3264146495687356e+06  2.2101104398282231e+06  -5.0194815900747906e+06  2.6131271379760336e+06  -4.5475857748996532e+06  3.2295074374659760e+06  -4.8132626015952434e+06  4.1347806069293097e+06  -3.9110547224693447e+06  2.9972983244132190e+06  -3.7512887842154587e+06  2.9679650613629459e+06  -4.0610163824169622e+06  -2.0555632411298688e+05  -1.8696196371716093e+06  -5.8493495847893767e+06  6.7360961013709344e+06  5.7877033120001753e-02  1.1029025241772487e-08  3.0829945311428200e+07  -1.7827374252135687e+07  2.6415747053422544e+07  -1.8987388435173459e+07  2.8495997614913013e+07  -1.6355660720332664e+07  2.1834620224741980e+07  -1.1326751527463933e+07  1.7883890906094097e+07  -8.6631559880877081e+06  1.0657221067686571e+07  -5.4334219403332360e+06  8.2450454597108783e+06  -4.5946296991875246e+06  7.6622708993784087e+06  -4.5343099877641965e+06  7.0657698017790494e+06  -4.7219581558113107e+06  5.7215898751047812e+06  -3.7819418634504857e+06  3.5166177052907785e+06  -3.7512887766882279e+06  3.5460142984152483e+06  -4.2046179328631135e+06  2.6297731941051264e+06  -3.0258607069170787e+06  3.5243125127263502e+06  -7.3056932468636939e+06  1.5679860989985323e+07  3.3926454228790037e-02  0.0000000000000000e+00  -4.8713244031964559e+06  -9.1193150058025820e+05  -1.6491224751077916e+07  2.9682002355154967e+06  -1.8134764940377198e+07  5.1858403774710018e+06  -1.6355699276669631e+07  2.0358352276332956e+06  -1.0825898701969866e+07  9.2742329939978942e+05  -4.5969734956775447e+06  -1.0542887014817530e+06  -4.1952302396984464e+06  7.0328379164487094e+04  -5.3930435742005417e+06  1.4105291581747686e+06  -5.3524591649794923e+06  1.4620111464451025e+06  -4.0375426943622800e+06  1.4975513876546680e+06  -4.0015857496441957e+06  2.9679650434682020e+06  -4.2046179282889543e+06  2.0488864859542341e+06  -2.7180110141824149e+06  4.1768938414056326e+05  -4.0463741554516465e+06  -3.0022920186640015e+06  9.4387154269833770e+06  1.8312655010625525e-02  0.0000000000000000e+00  5.3735295597975008e+07  -2.9116724772818379e+07  4.0842023978389181e+07  -2.7159228880250443e+07  3.3419668117393460e+07  -1.8134785749773286e+07  2.8496028719204221e+07  -1.2596478727646282e+07  1.7310942644310638e+07  -7.4969085359227257e+06  1.0410973388899956e+07  -4.4816145562703051e+06  9.9844062296115644e+06  -4.7843289573160745e+06  9.7466509996158313e+06  -4.1024273982308102e+06  7.6515488349859444e+06  -3.0286240835679639e+06  5.9795895377322389e+06  -3.7409410614950098e+06  5.2139376490673851e+06  -4.0610163403299320e+06  2.6297731900898358e+06  -2.7180110099085714e+06  1.1755956988995906e+06  -3.9990208958717347e+06  1.3238301343787783e+06  -3.2807667418852104e+06  1.6464721663197771e+07  8.8313343994143156e-03  0.0000000000000000e+00  -1.6120489171134628e+07  2.8417466745492709e+06  -2.6630496081364717e+07  1.0782250528339570e+07  -2.7159239005885307e+07  2.9682166086181542e+06  -1.89873951