<?xml version="1.0"?>
<VTKFile type="UnstructuredGrid"  version="0.1"  >
<UnstructuredGrid>
<Piece  NumberOfPoints="961" NumberOfCells="1800">
<Points>
<DataArray  type="Float64"  NumberOfComponents="3"  format="ascii">-1 -1 0  -0.9333333333333333 -1 0  -0.8666666666666667 -1 0  -0.8 -1 0  -0.7333333333333334 -1 0  -0.6666666666666667 -1 0  -0.6 -1 0  -0.5333333333333333 -1 0  -0.4666666666666667 -1 0  -0.4 -1 0  -0.3333333333333334 -1 0  -0.2666666666666667 -1 0  -0.2 -1 0  -0.1333333333333333 -1 0  -0.06666666666666665 -1 0  0 -1 0  0.06666666666666665 -1 0  0.1333333333333333 -1 0  0.2 -1 0  0.2666666666666666 -1 0  0.3333333333333333 -1 0  0.3999999999999999 -1 0  0.4666666666666666 -1 0  0.5333333333333334 -1 0  0.6000000000000001 -1 0  0.6666666666666667 -1 0  0.7333333333333334 -1 0  0.8 -1 0  0.8666666666666667 -1 0  0.9333333333333333 -1 0  1 -1 0  -1 -0.9333333333333333 0  -0.9333333333333333 -0.9333333333333333 0  -0.8666666666666667 -0.9333333333333333 0  -0.8 -0.9333333333333333 0  -0.7333333333333334 -0.9333333333333333 0  -0.6666666666666667 -0.9333333333333333 0  -0.6 -0.9333333333333333 0  -0.5333333333333333 -0.9333333333333333 0  -0.4666666666666667 -0.9333333333333333 0  -0.4 -0.9333333333333333 0  -0.3333333333333334 -0.9333333333333333 0  -0.2666666666666667 -0.9333333333333333 0  -0.2 -0.9333333333333333 0  -0.1333333333333333 -0.9333333333333333 0  -0.06666666666666665 -0.9333333333333333 0  0 -0.9333333333333333 0  0.06666666666666665 -0.9333333333333333 0  0.1333333333333333 -0.9333333333333333 0  0.2 -0.9333333333333333 0  0.2666666666666666 -0.9333333333333333 0  0.3333333333333333 -0.9333333333333333 0  0.3999999999999999 -0.9333333333333333 0  0.4666666666666666 -0.9333333333333333 0  0.5333333333333334 -0.9333333333333333 0  0.6000000000000001 -0.9333333333333333 0  0.6666666666666667 -0.9333333333333333 0  0.7333333333333334 -0.9333333333333333 0  0.8 -0.9333333333333333 0  0.8666666666666667 -0.9333333333333333 0  0.9333333333333333 -0.9333333333333333 0  1 -0.9333333333333333 0  -1 -0.8666666666666667 0  -0.9333333333333333 -0.8666666666666667 0  -0.8666666666666667 -0.8666666666666667 0  -0.8 -0.8666666666666667 0  -0.7333333333333334 -0.8666666666666667 0  -0.6666666666666667 -0.8666666666666667 0  -0.6 -0.8666666666666667 0  -0.5333333333333333 -0.8666666666666667 0  -0.4666666666666667 -0.8666666666666667 0  -0.4 -0.8666666666666667 0  -0.3333333333333334 -0.8666666666666667 0  -0.2666666666666667 -0.8666666666666667 0  -0.2 -0.8666666666666667 0  -0.1333333333333333 -0.8666666666666667 0  -0.06666666666666665 -0.8666666666666667 0  0 -0.8666666666666667 0  0.06666666666666665 -0.8666666666666667 0  0.1333333333333333 -0.8666666666666667 0  0.2 -0.8666666666666667 0  0.2666666666666666 -0.8666666666666667 0  0.3333333333333333 -0.8666666666666667 0  0.3999999999999999 -0.8666666666666667 0  0.4666666666666666 -0.8666666666666667 0  0.5333333333333334 -0.8666666666666667 0  0.6000000000000001 -0.8666666666666667 0  0.6666666666666667 -0.8666666666666667 0  0.7333333333333334 -0.8666666666666667 0  0.8 -0.8666666666666667 0  0.8666666666666667 -0.8666666666666667 0  0.9333333333333333 -0.8666666666666667 0  1 -0.8666666666666667 0  -1 -0.8 0  -0.9333333333333333 -0.8 0  -0.8666666666666667 -0.8 0  -0.8 -0.8 0  -0.7333333333333334 -0.8 0  -0.6666666666666667 -0.8 0  -0.6 -0.8 0  -0.5333333333333333 -0.8 0  -0.4666666666666667 -0.8 0  -0.4 -0.8 0  -0.3333333333333334 -0.8 0  -0.2666666666666667 -0.8 0  -0.2 -0.8 0  -0.1333333333333333 -0.8 0  -0.06666666666666665 -0.8 0  0 -0.8 0  0.06666666666666665 -0.8 0  0.1333333333333333 -0.8 0  0.2 -0.8 0  0.2666666666666666 -0.8 0  0.3333333333333333 -0.8 0  0.3999999999999999 -0.8 0  0.4666666666666666 -0.8 0  0.5333333333333334 -0.8 0  0.6000000000000001 -0.8 0  0.6666666666666667 -0.8 0  0.7333333333333334 -0.8 0  0.8 -0.8 0  0.8666666666666667 -0.8 0  0.9333333333333333 -0.8 0  1 -0.8 0  -1 -0.7333333333333334 0  -0.9333333333333333 -0.7333333333333334 0  -0.8666666666666667 -0.7333333333333334 0  -0.8 -0.7333333333333334 0  -0.7333333333333334 -0.7333333333333334 0  -0.6666666666666667 -0.7333333333333334 0  -0.6 -0.7333333333333334 0  -0.5333333333333333 -0.7333333333333334 0  -0.4666666666666667 -0.7333333333333334 0  -0.4 -0.7333333333333334 0  -0.3333333333333334 -0.7333333333333334 0  -0.2666666666666667 -0.7333333333333334 0  -0.2 -0.7333333333333334 0  -0.1333333333333333 -0.7333333333333334 0  -0.06666666666666665 -0.7333333333333334 0  0 -0.7333333333333334 0  0.06666666666666665 -0.7333333333333334 0  0.1333333333333333 -0.7333333333333334 0  0.2 -0.7333333333333334 0  0.2666666666666666 -0.7333333333333334 0  0.3333333333333333 -0.7333333333333334 0  0.3999999999999999 -0.7333333333333334 0  0.4666666666666666 -0.7333333333333334 0  0.5333333333333334 -0.7333333333333334 0  0.6000000000000001 -0.7333333333333334 0  0.6666666666666667 -0.7333333333333334 0  0.7333333333333334 -0.7333333333333334 0  0.8 -0.7333333333333334 0  0.8666666666666667 -0.7333333333333334 0  0.9333333333333333 -0.7333333333333334 0  1 -0.7333333333333334 0  -1 -0.6666666666666667 0  -0.9333333333333333 -0.6666666666666667 0  -0.8666666666666667 -0.6666666666666667 0  -0.8 -0.6666666666666667 0  -0.7333333333333334 -0.6666666666666667 0  -0.6666666666666667 -0.6666666666666667 0  -0.6 -0.6666666666666667 0  -0.5333333333333333 -0.6666666666666667 0  -0.4666666666666667 -0.6666666666666667 0  -0.4 -0.6666666666666667 0  -0.3333333333333334 -0.6666666666666667 0  -0.2666666666666667 -0.6666666666666667 0  -0.2 -0.6666666666666667 0  -0.1333333333333333 -0.6666666666666667 0  -0.06666666666666665 -0.6666666666666667 0  0 -0.6666666666666667 0  0.06666666666666665 -0.6666666666666667 0  0.1333333333333333 -0.6666666666666667 0  0.2 -0.6666666666666667 0  0.2666666666666666 -0.6666666666666667 0  0.3333333333333333 -0.6666666666666667 0  0.3999999999999999 -0.6666666666666667 0  0.4666666666666666 -0.6666666666666667 0  0.5333333333333334 -0.6666666666666667 0  0.6000000000000001 -0.6666666666666667 0  0.6666666666666667 -0.6666666666666667 0  0.7333333333333334 -0.6666666666666667 0  0.8 -0.6666666666666667 0  0.8666666666666667 -0.6666666666666667 0  0.9333333333333333 -0.6666666666666667 0  1 -0.6666666666666667 0  -1 -0.6 0  -0.9333333333333333 -0.6 0  -0.8666666666666667 -0.6 0  -0.8 -0.6 0  -0.7333333333333334 -0.6 0  -0.6666666666666667 -0.6 0  -0.6 -0.6 0  -0.5333333333333333 -0.6 0  -0.4666666666666667 -0.6 0  -0.4 -0.6 0  -0.3333333333333334 -0.6 0  -0.2666666666666667 -0.6 0  -0.2 -0.6 0  -0.1333333333333333 -0.6 0  -0.06666666666666665 -0.6 0  0 -0.6 0  0.06666666666666665 -0.6 0  0.1333333333333333 -0.6 0  0.2 -0.6 0  0.2666666666666666 -0.6 0  0.3333333333333333 -0.6 0  0.3999999999999999 -0.6 0  0.4666666666666666 -0.6 0  0.5333333333333334 -0.6 0  0.6000000000000001 -0.6 0  0.6666666666666667 -0.6 0  0.7333333333333334 -0.6 0  0.8 -0.6 0  0.8666666666666667 -0.6 0  0.9333333333333333 -0.6 0  1 -0.6 0  -1 -0.5333333333333333 0  -0.9333333333333333 -0.5333333333333333 0  -0.8666666666666667 -0.5333333333333333 0  -0.8 -0.5333333333333333 0  -0.7333333333333334 -0.5333333333333333 0  -0.6666666666666667 -0.5333333333333333 0  -0.6 -0.5333333333333333 0  -0.5333333333333333 -0.5333333333333333 0  -0.4666666666666667 -0.5333333333333333 0  -0.4 -0.5333333333333333 0  -0.3333333333333334 -0.5333333333333333 0  -0.2666666666666667 -0.5333333333333333 0  -0.2 -0.5333333333333333 0  -0.1333333333333333 -0.5333333333333333 0  -0.06666666666666665 -0.5333333333333333 0  0 -0.5333333333333333 0  0.06666666666666665 -0.5333333333333333 0  0.1333333333333333 -0.5333333333333333 0  0.2 -0.5333333333333333 0  0.2666666666666666 -0.5333333333333333 0  0.3333333333333333 -0.5333333333333333 0  0.3999999999999999 -0.5333333333333333 0  0.4666666666666666 -0.5333333333333333 0  0.5333333333333334 -0.5333333333333333 0  0.6000000000000001 -0.5333333333333333 0  0.6666666666666667 -0.5333333333333333 0  0.7333333333333334 -0.5333333333333333 0  0.8 -0.5333333333333333 0  0.8666666666666667 -0.5333333333333333 0  0.9333333333333333 -0.5333333333333333 0  1 -0.5333333333333333 0  -1 -0.4666666666666667 0  -0.9333333333333333 -0.4666666666666667 0  -0.8666666666666667 -0.4666666666666667 0  -0.8 -0.4666666666666667 0  -0.7333333333333334 -0.4666666666666667 0  -0.6666666666666667 -0.4666666666666667 0  -0.6 -0.4666666666666667 0  -0.5333333333333333 -0.4666666666666667 0  -0.4666666666666667 -0.4666666666666667 0  -0.4 -0.4666666666666667 0  -0.3333333333333334 -0.4666666666666667 0  -0.2666666666666667 -0.4666666666666667 0  -0.2 -0.4666666666666667 0  -0.1333333333333333 -0.4666666666666667 0  -0.06666666666666665 -0.4666666666666667 0  0 -0.4666666666666667 0  0.06666666666666665 -0.4666666666666667 0  0.1333333333333333 -0.4666666666666667 0  0.2 -0.4666666666666667 0  0.2666666666666666 -0.4666666666666667 0  0.3333333333333333 -0.4666666666666667 0  0.3999999999999999 -0.4666666666666667 0  0.4666666666666666 -0.4666666666666667 0  0.5333333333333334 -0.4666666666666667 0  0.6000000000000001 -0.4666666666666667 0  0.6666666666666667 -0.4666666666666667 0  0.7333333333333334 -0.4666666666666667 0  0.8 -0.4666666666666667 0  0.8666666666666667 -0.4666666666666667 0  0.9333333333333333 -0.4666666666666667 0  1 -0.4666666666666667 0  -1 -0.4 0  -0.9333333333333333 -0.4 0  -0.8666666666666667 -0.4 0  -0.8 -0.4 0  -0.7333333333333334 -0.4 0  -0.6666666666666667 -0.4 0  -0.6 -0.4 0  -0.5333333333333333 -0.4 0  -0.4666666666666667 -0.4 0  -0.4 -0.4 0  -0.3333333333333334 -0.4 0  -0.2666666666666667 -0.4 0  -0.2 -0.4 0  -0.1333333333333333 -0.4 0  -0.06666666666666665 -0.4 0  0 -0.4 0  0.06666666666666665 -0.4 0  0.1333333333333333 -0.4 0  0.2 -0.4 0  0.2666666666666666 -0.4 0  0.3333333333333333 -0.4 0  0.3999999999999999 -0.4 0  0.4666666666666666 -0.4 0  0.5333333333333334 -0.4 0  0.6000000000000001 -0.4 0  0.6666666666666667 -0.4 0  0.7333333333333334 -0.4 0 
[...]
<PointData  Scalars="f_24"> 
<DataArray  type="Float64"  Name="f_24"  format="ascii">0.0000000000000000e+00  0.0000000000000000e+00  0.0000000000000000e+00  0.0000000000000000e+00  0.0000000000000000e+00  0.0000000000000000e+00  0.0000000000000000e+00  0.0000000000000000e+00  0.0000000000000000e+00  0.0000000000000000e+00  0.0000000000000000e+00  0.0000000000000000e+00  0.0000000000000000e+00  0.0000000000000000e+00  0.0000000000000000e+00  0.0000000000000000e+00  0.0000000000000000e+00  0.0000000000000000e+00  0.0000000000000000e+00  0.0000000000000000e+00  0.0000000000000000e+00  0.0000000000000000e+00  0.0000000000000000e+00  0.0000000000000000e+00  0.0000000000000000e+00  1.8192354493174463e-07  0.0000000000000000e+00  -2.4474962273861503e-07  0.0000000000000000e+00  0.0000000000000000e+00  1.0253188416517109e+01  0.0000000000000000e+00  9.3831681386499517e+06  1.0271311925520949e+07  1.4946539560081145e+07  1.0804984149496270e+07  1.4784491477040380e+07  8.4951405350337904e+06  1.4090192139495313e+07  6.0813839235291546e+06  1.3202352757946154e+07  4.4007457580351224e+06  1.2890192565021377e+07  2.7159405266851615e+06  1.3427160339151686e+07  1.4542404468143343e+06  1.4032308144462533e+07  1.0126620503182267e+06  1.4905522062275652e+07  9.6615467204233783e+05  1.6315589216349611e+07  1.5142594298655326e+06  1.8939656301820721e+07  9.7451710575665592e+05  2.7662263389665782e+07  -4.3240940754760765e+06  4.8173161777342312e+07  -1.4411498248024317e+07  7.9748663614552394e+07  -8.8607367566824090e+06  1.7334693860384893e+08  8.9529448844723909e+00  0.0000000000000000e+00  1.0271311909351256e+07  1.1327267782718489e+07  4.6403981146158325e+06  2.1531658671981869e+06  -2.8855764312196202e+06  -2.6341004354202067e+06  -6.4894567440424766e+06  -5.1865762240925916e+06  -7.2236997294382444e+06  -6.0757059392907266e+06  -7.9569802963443836e+06  -5.8015706775797280e+06  -8.2580950399761219e+06  -6.2260886386971753e+06  -7.8069479243386211e+06  -6.8315338500735201e+06  -7.9028896560869636e+06  -7.1175991734420946e+06  -8.0197834188590739e+06  -7.6751940212696716e+06  -9.1744938198065218e+06  -5.6356219165189983e+06  -1.5916704864021771e+07  -7.6293340574666602e+05  -2.6031452622564755e+07  2.5938160975052356e+06  -2.2517647162233278e+07  -1.3864810686803395e+07  -8.8607432108541690e+06  7.7804738020342681e+00  -5.1009540406553513e-09  1.4946539553165626e+07  4.6403981174757313e+06  1.7811461061375150e+06  -3.4416698315782649e+06  1.2370609448976945e+06  -3.5821931049991674e+06  3.1884456258996287e+06  -1.6563697832039350e+06  5.4675760205769837e+06  -1.7391028000090162e+06  7.9508466890513040e+06  -2.0408435854818383e+06  8.8571375958285574e+06  -1.8381392345468523e+06  9.7036470889340453e+06  -2.7287744526219130e+06  1.1204442377589183e+07  -3.5894197729148124e+06  1.1652797547120856e+07  -4.3701201768687507e+06  1.4168187910765300e+07  -8.8784155986098405e+06  2.3693387075068988e+07  -1.4733001502958596e+07  3.6636556263619624e+07  -2.3803786465436179e+07  4.3815095212950327e+07  -2.2517646718366951e+07  7.9748664868239582e+07  6.7271167243382681e+00  0.0000000000000000e+00  1.0804984099319311e+07  2.1531658828990338e+06  -3.4416698362554209e+06  6.0136686228695628e+05  -3.5513397319172877e+06  3.8357087195135595e+05  -2.7244402749442249e+06  -2.1982702423940788e+05  -4.4676316567522706e+06  -2.5127636659902704e+05  -5.3142879494417077e+06  -1.6095946455315233e+06  -5.0539360513944393e+06  -2.3082353116495083e+06  -5.7324619421542594e+06  -2.1065958238899335e+06  -5.7958285558620328e+06  -3.2004384512869166e+06  -4.5141423766111946e+06  -3.2600828449516115e+06  -7.4479320730395690e+06  1.5073011361626154e+05  -1.7024407813860577e+07  2.6666799812097093e+06  -2.4301343220335457e+07  9.7042929447659347e+06  -2.3803793255661424e+07  2.5938206802374879e+06  -1.4411503651574496e+07  5.7845197899090399e+00  -7.4716934640360189e-09  1.4784491462896675e+07  -2.8855764013949111e+06  1.2370609501164558e+06  -3.5513397348697386e+06  1.0542565490088025e+06  -2.4661727169257500e+06  2.2952140440661893e+06  -3.7217325927484240e+06  4.5708630754950373e+06  -3.4615568651706888e+06  5.2408067871738765e+06  -2.8314679747108803e+06  6.7353434396546604e+06  -3.7943222825679206e+06  8.6124707465932202e+06  -4.4047644440197069e+06  8.8258719852649756e+06  -4.1321067582943891e+06  9.2119371869799271e+06  -6.8249107909450792e+06  1.5409058961206481e+07  -1.1367129525621308e+07  2.5467439453872159e+07  -1.6277665704754466e+07  2.9938071464361083e+07  -2.4301351422884408e+07  3.6636563989907004e+07  -2.6031453458851185e+07  4.8173161348840483e+07  4.9446317595086375e+00  0.0000000000000000e+00  8.4951404620683156e+06  -2.6341003908050531e+06  -3.5821931467081499e+06  3.8357088122502825e+05  -2.4661727207504297e+06  1.7669623134744868e+06  -3.8624589051534864e+06  2.5469927790142661e+06  -3.7031929080813527e+06  1.2232673205342344e+06  -3.7313213692251574e+06  1.2002867403555375e+06  -4.8998409443620583e+06  1.1620255612461427e+06  -4.9317665691964552e+06  -3.8494756661051455e+04  -3.8624201686053132e+06  -1.0529455750423004e+06  -4.2313664540101234e+06  7.1430834975786065e+05  -9.8146597378769126e+06  1.7137652778464684e+06  -1.4746275183838697e+07  4.5778156602076525e+06  -1.6277685357307287e+07  2.6666951667580423e+06  -1.4733007286585759e+07  -7.6293406144641479e+05  -4.3240959146098010e+06  4.1997059754054087e+00  8.7334977927203186e-09  1.4090192132006332e+07  -6.4894566999911722e+06  3.1884456217605397e+06  -2.7244402582349367e+06  2.2952140477007856e+06  -3.8624589092570553e+06  3.0621798694313313e+06  -3.4791928307067985e+06  3.0374597628877815e+06  -3.4899673490355308e+06  5.0351478753710678e+06  -4.3103255018907869e+06  6.2575379377256986e+06  -4.1296282277214034e+06  6.7979329049872495e+06  -4.1834725574633367e+06  7.3140587069809306e+06  -4.9472927883864939e+06  9.4575039972481877e+06  -7.8616898657492297e+06  1.5909782820649268e+07  -1.0263407069813043e+07  1.9447751545438845e+07  -1.4746309321961666e+07  2.5467467590733323e+07  -1.7024413478646848e+07  2.3693382065812331e+07  -1.5916699441868972e+07  2.7662262515720475e+07  3.5422993823043996e+00  0.0000000000000000e+00  6.0813838270340431e+06  -5.1865761611151909e+06  -1.6563698518758854e+06  -2.1982699946938170e+05  -3.7217326303133341e+06  2.5469927950055292e+06  -3.4791928374474850e+06  2.5750676955980668e+06  -3.5972280824839910e+06  3.6279311511128051e+06  -4.3727836409218963e+06  2.8442863235793011e+06  -4.1149767480871072e+06  2.3041229460749780e+06  -4.5316344787790664e+06  1.9432420339610137e+06  -3.9172144537695027e+06  1.1588112700684501e+06  -5.1224264495121110e+06  2.0802127209925833e+06  -9.2725638686280213e+06  2.8076259870922226e+06  -1.0263470694308763e+07  1.7138164363497857e+06  -1.1367140836126175e+07  1.5071807110949609e+05  -8.8784064197238926e+06  -5.6356229482703861e+06  9.7451337415083288e+05  2.9652727230859663e+00  1.0813124526045891e-08  1.3202352758610938e+07  -7.2236996651733685e+06  5.4675760061245896e+06  -4.4676316329214768e+06  4.5708630922010383e+06  -3.7031929048364316e+06  3.0374597680028346e+06  -3.5972280860646507e+06  4.1391278588538384e+06  -4.2808139010658162e+06  4.0544281504027741e+06  -3.9199231579975043e+06  5.4921158947615549e+06  -4.9198443252736563e+06  6.5570573613312580e+06  -4.4991884879055750e+06  5.8448502702443097e+06  -4.5771246155074295e+06  9.1529231685855538e+06  -7.1503025499870302e+06  1.3070773787133956e+07  -9.2726726334214937e+06  1.5909872154495135e+07  -9.8146754261833150e+06  1.5409032820155805e+07  -7.4479089561594073e+06  1.4168184070742672e+07  -9.1744975288579185e+06  1.8939658747251969e+07  2.4617903683109943e+00  0.0000000000000000e+00  4.4007456422803989e+06  -6.0757058637286667e+06  -1.7391029119236753e+06  -2.5127630331172177e+05  -3.4615569393029097e+06  1.2232673449613552e+06  -3.4899673824492227e+06  3.6279311701548593e+06  -4.2808139123478308e+06  3.5298743333226275e+06  -3.8495211888129618e+06  4.4975457052159803e+06  -5.2272533888849970e+06  3.9041083531050449e+06  -4.1848372472390756e+06  1.9344157519921288e+06  -2.9174218523049019e+06  2.3295249341188311e+06  -6.6993277761826646e+06  3.6865700946039692e+06  -7.1504834233252099e+06  2.0803624225133930e+06  -7.8617148001576439e+06  7.1425778055745480e+05  -6.8248678768891776e+06  -3.2600899924297431e+06  -4.3701319203137159e+06  -7.6751859741940023e+06  1.5142569750878804e+06  2.0253211686947385e+00  0.0000000000000000e+00  1.2890192576972561e+07  -7.9569802271075640e+06  7.9508466900256937e+06  -5.3142879183746399e+06  5.2408067950134221e+06  -3.7313213508706572e+06  5.0351478997611646e+06  -4.3727836518672528e+06  4.0544281631316124e+06  -3.8495211932200035e+06  5.0561547525993874e+06  -5.4902657801476223e+06  4.8698225562251620e+06  -3.8981612159016454e+06  4.6067998451323444e+06  -3.6270547222799743e+06  5.3449705246514194e+06  -5.7749809789892118e+06  9.6120496025916282e+06  -6.6996087339543989e+06  9.1531609165042099e+06  -5.1224607727862038e+06  9.4574121010911465e+06  -4.2312867713650409e+06  9.2119239730113447e+06  -4.5141637271142928e+06  1.1652813857287472e+07  -8.0197843323394107e+06  1.6315586458649404e+07  1.6496367501591678e+00  0.0000000000000000e+00  2.7159403764730790e+06  -5.8015705719683403e+06  -2.0408437463457754e+06  -1.6095945641415496e+06  -2.8314680782660409e+06  1.2002867987997313e+06  -4.3103255891745724e+06  2.8442863625501129e+06  -3.9199231960798418e+06  4.4975457297042888e+06  -5.4902658004171615e+06  4.3246718738946579e+06  -3.4070341404958442e+06  3.8247942401355896e+06  -4.5605246593763037e+06  3.2711003764340864e+06  -4.2731250603744481e+06  3.9617313302642731e+06  -5.7753899835196203e+06  2.3298794169671261e+06  -4.5771710242551919e+06  1.1586559507175162e+06  -4.9471587517759418e+06  -1.0529665574296587e+06  -4.1321491392048281e+06  -3.2004061351439557e+06  -3.5894234261588040e+06  -7.1176067147263056e+06  9.6615691819660738e+05  1.3288132187806172e+00  1.6585563646438954e-06  1.3427160376842113e+07  -8.2580949681895114e+06  8.8571375996886827e+06  -5.0539359965650681e+06  6.7353434574661907e+06  -4.8998409395188643e+06  6.2575379801276140e+06  -4.1149767495088922e+06  5.4921159331333051e+06  -5.2272534224772258e+06  4.8698225887120757e+06  -3.4070341478201374e+06  4.3604390773016522e+06  -5.7235104748480069e+06  4.9368617374662599e+06  -2.9641766670122906e+06  4.2035547853696849e+06  -4.2736727274374962e+06  5.3454610287772957e+06  -2.9174782942452417e+06  5.8446065256598219e+06  -3.9170015634493679e+06  7.3140281393572791e+06  -3.8624945249601775e+06  8.8259299909573179e+06  -5.7958326283263406e+06  1.1204424684591681e+07  -7.9028795888200803e+06  1.4905522345161622e+07  1.0572303083159573e+00  0.0000000000000000e+00  1.4542402459496246e+06  -6.2260885104873721e+06  -1.8381394351301750e+06  -2.3082352010732079e+06  -3.7943224560716064e+06  1.1620256702633833e+06  -4.1296283611373142e+06  2.3041230207000570e+06  -4.9198444392683832e+06  3.9041084255684661e+06  -3.8981612711255113e+06  3.8247942689080094e+06  -5.7235105118750259e+06  4.9166438609523065e+06  -1.7977065315153725e+06  5.5323611419895687e+05  -2.9648470403383919e+06  3.2717242128700335e+06  -3.6271194518569005e+06  1.9340647485967665e+06  -4.4988780881979009e+06  1.9432026205313315e+06  -4.1835975599317029e+06  -3.8397085181872557e+04  -4.4047714045103742e+06  -2.1066295390490154e+06  -2.7287554844962787e+06  -6.8315320114422701e+06  1.0126560853871008e+06  8.2957155069736443e-01  0.0000000000000000e+00  1.4032308207833627e+07  -7.8069478300839514e+06  9.7036471034734398e+06  -5.7324618958390784e+06  8.6124708067180049e+06  -4.9317665714823138e+06  6.7979329677888406e+06  -4.5316345090388916e+06  6.5570574567450443e+06  -4.1848372951428848e+06  4.6067999157843795e+06  -4.5605247405278701e+06  4.9368618439357737e+06  -1.7977065764177027e+06  -1.8363306911759614e+05  -1.7984494411512949e+06  4.9375849458944779e+06  -4.5605934914309867e+06  4.6063401843755860e+06  -4.1844207420146232e+06  6.5570116936276183e+06  -4.5318257709454354e+06  6.7980839339784551e+06  -4.9317737028029067e+06  8.6124108725950178e+06  -5.7324257080302387e+06  9.7036505745430123e+06  -7.8069608492951756e+06  1.4032312571621664e+07  6.4082427603231928e-01  0.0000000000000000e+00  1.0126617846385272e+06  -6.8315336876706043e+06  -2.7287747402543859e+06  -2.1065956402990608e+06  -4.4047647069658767e+06  -3.8494598111789237e+04  -4.1834727764052744e+06  1.9432421991919428e+06  -4.4991887021066938e+06  1.9344158930976973e+06  -3.6270549053727067e+06  3.2711005413487777e+06  -2.9641767968606614e+06  5.5323611417368997e+05  -1.7984493962463229e+06  4.9174039985788474e+06  -5.7235809948503701e+06  3.8242517316281353e+06  -3.8976530755296950e+06  3.9040605095497873e+06  -4.9201122724115700e+06  2.3043370512189479e+06  -4.1296343921266696e+06  1.1619287745903397e+06  -3.7942634651417872e+06  -2.3082278477936140e+06  -1.8381663549704775e+06  -6.2260776888635205e+06  1.4542417295012465e+06  4.8627961260360647e-01  3.8516795477913417e-09  1.4905522161896199e+07  -7.9028895536718322e+06  1.1204442447646655e+07  -5.7958285345097203e+06  8.8258720890965927e+06  -3.8624201930701113e+06  7.3140588487759540e+06  -3.9172145494873202e+06  5.8448504296046430e+06  -2.9174219404431293e+06  5.3449706723180702e+06  -4.2731251362176538e+06  4.2035547852971423e+06  -2.9648469104021960e+06  4.9375848394368002e+06  -5.7235809578161398e+06  4.3598653388111042e+06  -3.4064718488036445e+06  4.8697752542809015e+06  -5.2275902885864545e+06  5.4923915985045321e+06  -4.1149775901094289e+06  6.2573947203343743e+06  -4.8997517835874716e+06  6.7353567801190335e+06  -5.0539815172976768e+06  8.8571567927529644e+06  -8.2580885252326615e+06  1.3427153227980705e+07  3.6153248892562834e-01  0.0000000000000000e+00  9.6615428733943473e+05  -7.1175989227365041e+06  -3.5894202028607386e+06  -3.2004381870023403e+06  -4.1321071258033575e+06  -1.0529453317413514e+06  -4.9472931299680080e+06  1.1588114933659958e+06  -4.5771248615843682e+06  2.3295250578189031e+06  -5.7749811265008254e+06  3.9617313302215077e+06  -4.2736726514669172e+06  3.2717240478560971e+06  -4.5605934103345675e+06  3.8242517028388055e+06  -3.4064718414890994e+06  4.3246252123112762e+06  -5.4906446177150253e+06  4.4978671162762884e+06  -3.9199175374604817e+06  2.8440953898054897e+06  -4.3102048663015850e+06  1.2003092719476135e+06  -2.8315395582462372e+06  -1.6095637840388250e+06  -2.0408315902378189e+06  -5.8015875872402834e+06  2.7159438014204642e+06  2.6248162346283804e-01  -4.1149278689273980e-09  1.6315589385925224e+07  -8.0197833063819520e+06  1.1652797665302625e+07  -4.5141423401512969e+06  9.2119373249948043e+06  -4.2313664821081739e+06  9.4575041504781265e+06  -5.1224264606589926e+06  9.1529232313975748e+06  -6.6993277258915352e+06  9.6120496024910584e+06  -5.7753898359696548e+06  5.3454608810518542e+06  -3.6271192686312152e+06  4.6063401138286591e+06  -3.8976530202514459e+06  4.8697752218186595e+06  -5.4906445974401133e+06  5.0564930732788397e+06  -3.8495104545629346e+06  4.0542003377805720e+06  -4.3726352554224292e+06  5.0351810367617477e+06  -3.7314212049464020e+06  5.2408504295639563e+06  -5.3142662567920657e+06  7.9508159472116167e+06  -7.9569720038477276e+06  1.2890197240963943e+07  1.8532954519287290e-01  0.0000000000000000e+00  1.5142588570257800e+06  -7.6751936777388807e+06  -4.3701207356293416e+06  -3.2600825507726073e+06  -6.8249112249506628e+06  7.1430857660969824e+05  -7.8616901648726212e+06  2.0802128035201146e+06  -7.1503026883182228e+06  3.6865700942150769e+06  -6.6996087838003328e+06  2.3298792932505039e+06  -2.9174782061711801e+06  1.9340646072883212e+06  -4.1844206942995018e+06  3.9040604369674451e+06  -5.2275902550585764e+06  4.4978670917599490e+06  -3.8495104501596987e+06  3.5296325673391037e+06  -4.2806496912455959e+06  3.6279734499486252e+06  -3.4900934126870004e+06  1.2233233849368165e+06  -3.4615250707222843e+06  -2.5132273543776944e+05  -1.7390911746741142e+06  -6.0756939551191581e+06  4.4007368805748783e+06  1.2658257304342116e-01  0.0000000000000000e+00  1.8939656513180729e+07  -9.1744935827417336e+06  1.4168188005238654e+07  -7.4479319483465096e+06  1.5409059085672647e+07  -9.8146596665354446e+06  1.5909782885735443e+07  -9.2725637391171735e+06  1.3070773786933672e+07  -7.1504832842769679e+06  9.1531608530509099e+06  -4.5771707781355223e+06  5.8446063665427528e+06  -4.4988778736395994e+06  6.5570115985360937e+06  -4.9201121581746386e+06  5.4923915602746019e+06  -3.9199174993018610e+06  4.0542003250824255e+06  -4.2806496799619785e+06  4.1391737619693796e+06  -3.5973695686438610e+06  3.0375246082219318e+06  -3.7031506639622222e+06  4.5708006686969064e+06  -4.4676154424566124e+06  5.4675961318417601e+06  -7.2237169817979056e+06  1.3202354799554918e+07  8.3051024719759503e-02  0.0000000000000000e+00  9.7451631138138007e+05  -5.6356215121718096e+06  -8.8784162908893805e+06  1.5073039967545134e+05  -1.1367129994790310e+07  1.7137654169884562e+06  -1.0263407323315008e+07  2.8076259863680070e+06  -9.2726727626397703e+06  2.0803623396871611e+06  -5.1224607609207351e+06  1.1586557272282669e+06  -3.9170014682473955e+06  1.9432024546607716e+06  -4.5318257412556224e+06  2.3043369761461108e+06  -4.1149775889886441e+06  2.8440953506627083e+06  -4.3726352445659172e+06  3.6279734308754499e+06  -3.5973695650647227e+06  2.5751357428770233e+06  -3.4791444452900542e+06  2.5469184460430616e+06  -3.7217137351046703e+06  -2.1979792649917450e+05  -1.6563972649673335e+06  -5.1865728665662427e+06  6.0813899495052835e+06  5.1848221918585319e-02  2.2058050483544975e-08  2.7662263542705555e+07  -1.5916704407418812e+07  2.3693387200833369e+07  -1.7024407624945670e+07  2.5467439592525024e+07  -1.4746274983096400e+07  1.9447751543840740e+07  -1.0263470437773725e+07  1.5909872088635230e+07  -7.8617145013453569e+06  9.4574119472288005e+06  -4.9471584096570322e+06  7.3140279985655630e+06  -4.1835973398408778e+06  6.7980838722176524e+06  -4.1296342578779203e+06  6.2573946785318330e+06  -4.3102047786382223e+06  5.0351810125830825e+06  -3.4900933791709724e+06  3.0375246031395718e+06  -3.4791444385464275e+06  3.0621010379962195e+06  -3.8624382611819538e+06  2.2952498346570563e+06  -2.7244752962296833e+06  3.1884487377203391e+06  -6.4894425854878332e+06  1.4090184679622075e+07  3.0392475787725380e-02  0.0000000000000000e+00  -4.3240952534802118e+06  -7.6293281051285507e+05  -1.4733002431539243e+07  2.6666802266954780e+06  -1.6277666203421647e+07  4.5778156610677456e+06  -1.4746309523181621e+07  1.7138162935845929e+06  -9.8146754954919871e+06  7.1425755471957056e+05  -4.2312867429780029e+06  -1.0529668020099313e+06  -3.8624945024562827e+06  -3.8397245861825868e+04  -4.9317737024594853e+06  1.1619286639870389e+06  -4.8997517896105740e+06  1.2003092127006405e+06  -3.7314212237895681e+06  1.2233233602479645e+06  -3.7031506673268108e+06  2.5469184300162443e+06  -3.8624382570815878e+06  1.7670006784960837e+06  -2.4662125806705994e+06  3.8357390662734333e+05  -3.5821732993228496e+06  -2.6341133270934224e+06  8.4951396804895438e+06  1.6405101466427360e-02  0.0000000000000000e+00  4.8173161782150358e+07  -2.6031451908852112e+07  3.6636556488309935e+07  -2.4301342809121668e+07  2.9938071455396891e+07  -1.6277684845188964e+07  2.5467467456807405e+07  -1.1367140366164016e+07  1.5409032691023882e+07  -6.8248674446434742e+06  9.2119238356995229e+06  -4.1321487686599726e+06  8.8259298911715448e+06  -4.4047711373600513e+06  8.6124108162734471e+06  -3.7942632885044706e+06  6.7353567646926241e+06  -2.8315394530106662e+06  5.2408504228175730e+06  -3.4615249959495850e+06  4.5708006523216972e+06  -3.7217136973970928e+06  2.2952498310624291e+06  -2.4662125768426396e+06  1.0542594488218650e+06  -3.5513160000163293e+06  1.2370438104924955e+06  -2.8855774740645466e+06  1.4784497734115634e+07  7.9114108152138121e-03  0.0000000000000000e+00  -1.4411500270373592e+07  2.5938169076204984e+06  -2.3803787467533089e+07  9.7042929323058017e+06  -2.4301351880008183e+07  2.6666948942830232e+06  -1.702