<?xml version="1.0"?>
<VTKFile type="UnstructuredGrid"  version="0.1"  >
<UnstructuredGrid>
<Piece  NumberOfPoints="961" NumberOfCells="1800">
<Points>
<DataArray  type="Float64"  NumberOfComponents="3"  format="ascii">-1 -1 0  -0.9333333333333333 -1 0  -0.8666666666666667 -1 0  -0.8 -1 0  -0.7333333333333334 -1 0  -0.6666666666666667 -1 0  -0.6 -1 0  -0.5333333333333333 -1 0  -0.4666666666666667 -1 0  -0.4 -1 0  -0.3333333333333334 -1 0  -0.2666666666666667 -1 0  -0.2 -1 0  -0.1333333333333333 -1 0  -0.06666666666666665 -1 0  0 -1 0  0.06666666666666665 -1 0  0.1333333333333333 -1 0  0.2 -1 0  0.2666666666666666 -1 0  0.3333333333333333 -1 0  0.3999999999999999 -1 0  0.4666666666666666 -1 0  0.5333333333333334 -1 0  0.6000000000000001 -1 0  0.6666666666666667 -1 0  0.7333333333333334 -1 0  0.8 -1 0  0.8666666666666667 -1 0  0.9333333333333333 -1 0  1 -1 0  -1 -0.9333333333333333 0  -0.9333333333333333 -0.9333333333333333 0  -0.8666666666666667 -0.9333333333333333 0  -0.8 -0.9333333333333333 0  -0.7333333333333334 -0.9333333333333333 0  -0.6666666666666667 -0.9333333333333333 0  -0.6 -0.9333333333333333 0  -0.5333333333333333 -0.9333333333333333 0  -0.4666666666666667 -0.9333333333333333 0  -0.4 -0.9333333333333333 0  -0.3333333333333334 -0.9333333333333333 0  -0.2666666666666667 -0.9333333333333333 0  -0.2 -0.9333333333333333 0  -0.1333333333333333 -0.9333333333333333 0  -0.06666666666666665 -0.9333333333333333 0  0 -0.9333333333333333 0  0.06666666666666665 -0.9333333333333333 0  0.1333333333333333 -0.9333333333333333 0  0.2 -0.9333333333333333 0  0.2666666666666666 -0.9333333333333333 0  0.3333333333333333 -0.9333333333333333 0  0.3999999999999999 -0.9333333333333333 0  0.4666666666666666 -0.9333333333333333 0  0.5333333333333334 -0.9333333333333333 0  0.6000000000000001 -0.9333333333333333 0  0.6666666666666667 -0.9333333333333333 0  0.7333333333333334 -0.9333333333333333 0  0.8 -0.9333333333333333 0  0.8666666666666667 -0.9333333333333333 0  0.9333333333333333 -0.9333333333333333 0  1 -0.9333333333333333 0  -1 -0.8666666666666667 0  -0.9333333333333333 -0.8666666666666667 0  -0.8666666666666667 -0.8666666666666667 0  -0.8 -0.8666666666666667 0  -0.7333333333333334 -0.8666666666666667 0  -0.6666666666666667 -0.8666666666666667 0  -0.6 -0.8666666666666667 0  -0.5333333333333333 -0.8666666666666667 0  -0.4666666666666667 -0.8666666666666667 0  -0.4 -0.8666666666666667 0  -0.3333333333333334 -0.8666666666666667 0  -0.2666666666666667 -0.8666666666666667 0  -0.2 -0.8666666666666667 0  -0.1333333333333333 -0.8666666666666667 0  -0.06666666666666665 -0.8666666666666667 0  0 -0.8666666666666667 0  0.06666666666666665 -0.8666666666666667 0  0.1333333333333333 -0.8666666666666667 0  0.2 -0.8666666666666667 0  0.2666666666666666 -0.8666666666666667 0  0.3333333333333333 -0.8666666666666667 0  0.3999999999999999 -0.8666666666666667 0  0.4666666666666666 -0.8666666666666667 0  0.5333333333333334 -0.8666666666666667 0  0.6000000000000001 -0.8666666666666667 0  0.6666666666666667 -0.8666666666666667 0  0.7333333333333334 -0.8666666666666667 0  0.8 -0.8666666666666667 0  0.8666666666666667 -0.8666666666666667 0  0.9333333333333333 -0.8666666666666667 0  1 -0.8666666666666667 0  -1 -0.8 0  -0.9333333333333333 -0.8 0  -0.8666666666666667 -0.8 0  -0.8 -0.8 0  -0.7333333333333334 -0.8 0  -0.6666666666666667 -0.8 0  -0.6 -0.8 0  -0.5333333333333333 -0.8 0  -0.4666666666666667 -0.8 0  -0.4 -0.8 0  -0.3333333333333334 -0.8 0  -0.2666666666666667 -0.8 0  -0.2 -0.8 0  -0.1333333333333333 -0.8 0  -0.06666666666666665 -0.8 0  0 -0.8 0  0.06666666666666665 -0.8 0  0.1333333333333333 -0.8 0  0.2 -0.8 0  0.2666666666666666 -0.8 0  0.3333333333333333 -0.8 0  0.3999999999999999 -0.8 0  0.4666666666666666 -0.8 0  0.5333333333333334 -0.8 0  0.6000000000000001 -0.8 0  0.6666666666666667 -0.8 0  0.7333333333333334 -0.8 0  0.8 -0.8 0  0.8666666666666667 -0.8 0  0.9333333333333333 -0.8 0  1 -0.8 0  -1 -0.7333333333333334 0  -0.9333333333333333 -0.7333333333333334 0  -0.8666666666666667 -0.7333333333333334 0  -0.8 -0.7333333333333334 0  -0.7333333333333334 -0.7333333333333334 0  -0.6666666666666667 -0.7333333333333334 0  -0.6 -0.7333333333333334 0  -0.5333333333333333 -0.7333333333333334 0  -0.4666666666666667 -0.7333333333333334 0  -0.4 -0.7333333333333334 0  -0.3333333333333334 -0.7333333333333334 0  -0.2666666666666667 -0.7333333333333334 0  -0.2 -0.7333333333333334 0  -0.1333333333333333 -0.7333333333333334 0  -0.06666666666666665 -0.7333333333333334 0  0 -0.7333333333333334 0  0.06666666666666665 -0.7333333333333334 0  0.1333333333333333 -0.7333333333333334 0  0.2 -0.7333333333333334 0  0.2666666666666666 -0.7333333333333334 0  0.3333333333333333 -0.7333333333333334 0  0.3999999999999999 -0.7333333333333334 0  0.4666666666666666 -0.7333333333333334 0  0.5333333333333334 -0.7333333333333334 0  0.6000000000000001 -0.7333333333333334 0  0.6666666666666667 -0.7333333333333334 0  0.7333333333333334 -0.7333333333333334 0  0.8 -0.7333333333333334 0  0.8666666666666667 -0.7333333333333334 0  0.9333333333333333 -0.7333333333333334 0  1 -0.7333333333333334 0  -1 -0.6666666666666667 0  -0.9333333333333333 -0.6666666666666667 0  -0.8666666666666667 -0.6666666666666667 0  -0.8 -0.6666666666666667 0  -0.7333333333333334 -0.6666666666666667 0  -0.6666666666666667 -0.6666666666666667 0  -0.6 -0.6666666666666667 0  -0.5333333333333333 -0.6666666666666667 0  -0.4666666666666667 -0.6666666666666667 0  -0.4 -0.6666666666666667 0  -0.3333333333333334 -0.6666666666666667 0  -0.2666666666666667 -0.6666666666666667 0  -0.2 -0.6666666666666667 0  -0.1333333333333333 -0.6666666666666667 0  -0.06666666666666665 -0.6666666666666667 0  0 -0.6666666666666667 0  0.06666666666666665 -0.6666666666666667 0  0.1333333333333333 -0.6666666666666667 0  0.2 -0.6666666666666667 0  0.2666666666666666 -0.6666666666666667 0  0.3333333333333333 -0.6666666666666667 0  0.3999999999999999 -0.6666666666666667 0  0.4666666666666666 -0.6666666666666667 0  0.5333333333333334 -0.6666666666666667 0  0.6000000000000001 -0.6666666666666667 0  0.6666666666666667 -0.6666666666666667 0  0.7333333333333334 -0.6666666666666667 0  0.8 -0.6666666666666667 0  0.8666666666666667 -0.6666666666666667 0  0.9333333333333333 -0.6666666666666667 0  1 -0.6666666666666667 0  -1 -0.6 0  -0.9333333333333333 -0.6 0  -0.8666666666666667 -0.6 0  -0.8 -0.6 0  -0.7333333333333334 -0.6 0  -0.6666666666666667 -0.6 0  -0.6 -0.6 0  -0.5333333333333333 -0.6 0  -0.4666666666666667 -0.6 0  -0.4 -0.6 0  -0.3333333333333334 -0.6 0  -0.2666666666666667 -0.6 0  -0.2 -0.6 0  -0.1333333333333333 -0.6 0  -0.06666666666666665 -0.6 0  0 -0.6 0  0.06666666666666665 -0.6 0  0.1333333333333333 -0.6 0  0.2 -0.6 0  0.2666666666666666 -0.6 0  0.3333333333333333 -0.6 0  0.3999999999999999 -0.6 0  0.4666666666666666 -0.6 0  0.5333333333333334 -0.6 0  0.6000000000000001 -0.6 0  0.6666666666666667 -0.6 0  0.7333333333333334 -0.6 0  0.8 -0.6 0  0.8666666666666667 -0.6 0  0.9333333333333333 -0.6 0  1 -0.6 0  -1 -0.5333333333333333 0  -0.9333333333333333 -0.5333333333333333 0  -0.8666666666666667 -0.5333333333333333 0  -0.8 -0.5333333333333333 0  -0.7333333333333334 -0.5333333333333333 0  -0.6666666666666667 -0.5333333333333333 0  -0.6 -0.5333333333333333 0  -0.5333333333333333 -0.5333333333333333 0  -0.4666666666666667 -0.5333333333333333 0  -0.4 -0.5333333333333333 0  -0.3333333333333334 -0.5333333333333333 0  -0.2666666666666667 -0.5333333333333333 0  -0.2 -0.5333333333333333 0  -0.1333333333333333 -0.5333333333333333 0  -0.06666666666666665 -0.5333333333333333 0  0 -0.5333333333333333 0  0.06666666666666665 -0.5333333333333333 0  0.1333333333333333 -0.5333333333333333 0  0.2 -0.5333333333333333 0  0.2666666666666666 -0.5333333333333333 0  0.3333333333333333 -0.5333333333333333 0  0.3999999999999999 -0.5333333333333333 0  0.4666666666666666 -0.5333333333333333 0  0.5333333333333334 -0.5333333333333333 0  0.6000000000000001 -0.5333333333333333 0  0.6666666666666667 -0.5333333333333333 0  0.7333333333333334 -0.5333333333333333 0  0.8 -0.5333333333333333 0  0.8666666666666667 -0.5333333333333333 0  0.9333333333333333 -0.5333333333333333 0  1 -0.5333333333333333 0  -1 -0.4666666666666667 0  -0.9333333333333333 -0.4666666666666667 0  -0.8666666666666667 -0.4666666666666667 0  -0.8 -0.4666666666666667 0  -0.7333333333333334 -0.4666666666666667 0  -0.6666666666666667 -0.4666666666666667 0  -0.6 -0.4666666666666667 0  -0.5333333333333333 -0.4666666666666667 0  -0.4666666666666667 -0.4666666666666667 0  -0.4 -0.4666666666666667 0  -0.3333333333333334 -0.4666666666666667 0  -0.2666666666666667 -0.4666666666666667 0  -0.2 -0.4666666666666667 0  -0.1333333333333333 -0.4666666666666667 0  -0.06666666666666665 -0.4666666666666667 0  0 -0.4666666666666667 0  0.06666666666666665 -0.4666666666666667 0  0.1333333333333333 -0.4666666666666667 0  0.2 -0.4666666666666667 0  0.2666666666666666 -0.4666666666666667 0  0.3333333333333333 -0.4666666666666667 0  0.3999999999999999 -0.4666666666666667 0  0.4666666666666666 -0.4666666666666667 0  0.5333333333333334 -0.4666666666666667 0  0.6000000000000001 -0.4666666666666667 0  0.6666666666666667 -0.4666666666666667 0  0.7333333333333334 -0.4666666666666667 0  0.8 -0.4666666666666667 0  0.8666666666666667 -0.4666666666666667 0  0.9333333333333333 -0.4666666666666667 0  1 -0.4666666666666667 0  -1 -0.4 0  -0.9333333333333333 -0.4 0  -0.8666666666666667 -0.4 0  -0.8 -0.4 0  -0.7333333333333334 -0.4 0  -0.6666666666666667 -0.4 0  -0.6 -0.4 0  -0.5333333333333333 -0.4 0  -0.4666666666666667 -0.4 0  -0.4 -0.4 0  -0.3333333333333334 -0.4 0  -0.2666666666666667 -0.4 0  -0.2 -0.4 0  -0.1333333333333333 -0.4 0  -0.06666666666666665 -0.4 0  0 -0.4 0  0.06666666666666665 -0.4 0  0.1333333333333333 -0.4 0  0.2 -0.4 0  0.2666666666666666 -0.4 0  0.3333333333333333 -0.4 0  0.3999999999999999 -0.4 0  0.4666666666666666 -0.4 0  0.5333333333333334 -0.4 0  0.6000000000000001 -0.4 0  0.6666666666666667 -0.4 0  0.7333333333333334 -0.4 0 
[...]
<PointData  Scalars="f_24"> 
<DataArray  type="Float64"  Name="f_24"  format="ascii">0.0000000000000000e+00  0.0000000000000000e+00  0.0000000000000000e+00  0.0000000000000000e+00  0.0000000000000000e+00  0.0000000000000000e+00  0.0000000000000000e+00  0.0000000000000000e+00  0.0000000000000000e+00  0.0000000000000000e+00  0.0000000000000000e+00  0.0000000000000000e+00  0.0000000000000000e+00  0.0000000000000000e+00  0.0000000000000000e+00  0.0000000000000000e+00  0.0000000000000000e+00  0.0000000000000000e+00  0.0000000000000000e+00  0.0000000000000000e+00  0.0000000000000000e+00  0.0000000000000000e+00  0.0000000000000000e+00  0.0000000000000000e+00  0.0000000000000000e+00  6.8601186306362202e-08  0.0000000000000000e+00  4.8949924547723003e-08  0.0000000000000000e+00  0.0000000000000000e+00  1.0618404002181117e+01  0.0000000000000000e+00  9.7155491724624448e+06  1.0633591309792290e+07  1.5473766386784600e+07  1.1183266459196243e+07  1.5303279583416644e+07  8.7888286280282922e+06  1.4582270509687210e+07  6.2874396015927652e+06  1.3661448799789727e+07  4.5458504438390434e+06  1.3337321155335307e+07  2.8003973613953195e+06  1.3892964462503145e+07  1.4934719472261386e+06  1.4519533428830145e+07  1.0361748589146428e+06  1.5424002494076509e+07  9.8831133910430316e+05  1.6884755186012898e+07  1.5565776302369309e+06  1.9603127966915119e+07  9.9867484790910885e+05  2.8637748687659390e+07  -4.4870672150197392e+06  4.9881149785364576e+07  -1.4931529170118656e+07  8.2583965404630512e+07  -9.1800757312472071e+06  1.7951952326011112e+08  9.2718461741563747e+00  0.0000000000000000e+00  1.0633591293044902e+07  1.1724035410650251e+07  4.7965004068750301e+06  2.2189221374883279e+06  -3.0003412047426701e+06  -2.7403254988355758e+06  -6.7329196142047942e+06  -5.3831745962097161e+06  -7.4921685455241529e+06  -6.3024848165507857e+06  -8.2499663554006582e+06  -6.0170658451277576e+06  -8.5605221045171693e+06  -6.4557667572676130e+06  -8.0927867782359757e+06  -7.0827135580324484e+06  -8.1925368977196403e+06  -7.3797795252763284e+06  -8.3147549475304140e+06  -7.9586390105591062e+06  -9.5120977888419777e+06  -5.8478382741711233e+06  -1.6495585996465676e+07  -8.0216989691017277e+05  -2.6970402677482214e+07  2.6754137455218723e+06  -2.3328894271075148e+07  -1.4365480064318726e+07  -9.1800824153127149e+06  8.0576120130479190e+00  -5.6677267118392794e-09  1.5473766379618960e+07  4.7965004098349791e+06  1.8330267754126072e+06  -3.5764528416363802e+06  1.2698487576108959e+06  -3.7189822791766888e+06  3.2956624438665994e+06  -1.7185357566680200e+06  5.6623779911996108e+06  -1.7980126709663300e+06  8.2396811446559718e+06  -2.1058223371682162e+06  9.1818628360080067e+06  -1.8934475764018057e+06  1.0059773677683668e+07  -2.8157699996177447e+06  1.1612853235672204e+07  -3.7094306247636662e+06  1.2073679339079361e+07  -4.5224814849534165e+06  1.4673248225158552e+07  -9.1973827856369447e+06  2.4531499831513394e+07  -1.5266402968841797e+07  3.7930807420152999e+07  -2.4663409288658597e+07  4.5364449967757262e+07  -2.3328893811397124e+07  8.2583966702977091e+07  6.9667347387106098e+00  0.0000000000000000e+00  1.1183266407226587e+07  2.2189221537447148e+06  -3.5764528464820371e+06  6.1237573588436132e+05  -3.6841638981888792e+06  3.9635770413507015e+05  -2.8164353546989006e+06  -2.1690183284200585e+05  -4.6109596336208191e+06  -2.4024550881469215e+05  -5.4803478214370683e+06  -1.6413244926249036e+06  -5.2067620684505682e+06  -2.3623641740806978e+06  -5.9082807195557207e+06  -2.1535813875088054e+06  -5.9751493839401994e+06  -3.2889156422059629e+06  -4.6517710804152889e+06  -3.3562478862251882e+06  -7.6973569891308611e+06  1.6703510347388985e+05  -1.7625428449933484e+07  2.7612757783371853e+06  -2.5172674683411531e+07  1.0040146627400020e+07  -2.4663416320747532e+07  2.6754184914933927e+06  -1.4931534766136449e+07  5.9905627003712576e+00  -1.2090433144129537e-08  1.5303279568761934e+07  -3.0003411738605290e+06  1.2698487630124527e+06  -3.6841639012473524e+06  1.0930345875203980e+06  -2.5443934963967269e+06  2.3944523777721482e+06  -3.8303141794071798e+06  4.7625188626657147e+06  -3.5527151278662020e+06  5.4616527158143623e+06  -2.8970410303423153e+06  7.0110624270737469e+06  -3.8934742131177583e+06  8.9552568777046446e+06  -4.5257556895607840e+06  9.1758677716443129e+06  -4.2442699680356095e+06  9.5739168552754130e+06  -7.0361938635760816e+06  1.5986484538093448e+07  -1.1748200064991219e+07  2.6392070860179447e+07  -1.6847607765195295e+07  3.1006132653186250e+07  -2.5172683178131972e+07  3.7930815421651475e+07  -2.6970403543551926e+07  4.9881149341605648e+07  5.1207581029037037e+00  0.0000000000000000e+00  8.7888285524555668e+06  -2.7403254526367029e+06  -3.7189823223746782e+06  3.9635771373841917e+05  -2.5443935003575794e+06  1.8495662117693387e+06  -3.9724702511939956e+06  2.6704568558947011e+06  -3.7997025289974138e+06  1.3029901167838930e+06  -3.8284936956393109e+06  1.2778271537728680e+06  -5.0405764965878716e+06  1.2364801299743126e+06  -5.0746572228979049e+06  -6.8916797281244371e+03  -3.9663859849646091e+06  -1.0559457718962876e+06  -4.3467296562966555e+06  7.7543737746567465e+05  -1.0129359878427330e+07  1.8070868439063646e+06  -1.5244274277600383e+07  4.7604768495448604e+06  -1.6847628117766041e+07  2.7612915047913808e+06  -1.5266408958476366e+07  -8.0217057596023451e+05  -4.4870691196550103e+06  4.3492982792933867e+00  -2.4952850836343768e-09  1.4582270501922715e+07  -6.7329195685899882e+06  3.2956624395766365e+06  -2.8164353373945677e+06  2.3944523815367087e+06  -3.9724702554432782e+06  3.2049795847114772e+06  -3.5670976121793720e+06  3.1810813028738960e+06  -3.5811116167137353e+06  5.2448001558493664e+06  -4.4362803536024690e+06  6.5058583178210761e+06  -4.2526474078021822e+06  7.0636777942407960e+06  -4.3084521337486254e+06  7.5999136747556552e+06  -5.0961088283525305e+06  9.8244061133938115e+06  -8.1089388876300920e+06  1.6511410749202413e+07  -1.0593522684477974e+07  2.0173683517191231e+07  -1.5244309631714072e+07  2.6392099999266818e+07  -1.7625434316497285e+07  2.4531494643831648e+07  -1.6495580381170256e+07  2.8637747782591958e+07  3.6684750547831673e+00  0.0000000000000000e+00  6.2874395016511614e+06  -5.3831745309935156e+06  -1.7185358277886112e+06  -2.1690180718891809e+05  -3.8303142183090951e+06  2.6704568724565059e+06  -3.5670976191598037e+06  2.7016707848957987e+06  -3.6942261305396007e+06  3.7836312984100184e+06  -4.5064774432931058e+06  2.9640835763456021e+06  -4.2455936833086573e+06  2.4006691692556888e+06  -4.6790508831876451e+06  2.0269446539112842e+06  -4.0407788226873442e+06  1.2185453891893243e+06  -5.2829262156508891e+06  2.1805558748346898e+06  -9.5720864855103157e+06  2.9420029396773232e+06  -1.0593588575260160e+07  1.8071398246598470e+06  -1.1748211778374735e+07  1.6702263201598200e+05  -9.1973732797988318e+06  -5.8478393426665906e+06  9.9867098339248099e+05  3.0708948739937538e+00  1.5138374336464247e-08  1.3661448800469685e+07  -7.4921684789741673e+06  5.6623779762301845e+06  -4.6109596089398656e+06  4.7625188799680648e+06  -3.7997025256357947e+06  3.1810813081715237e+06  -3.6942261342489673e+06  4.3116228903059671e+06  -4.4141790622687060e+06  4.2131059690626962e+06  -4.0487895846048514e+06  5.6962453151996192e+06  -5.0878128700073715e+06  6.7975157265824582e+06  -4.6521347081747791e+06  6.0616132440286912e+06  -4.7293212234273758e+06  9.4932572106609866e+06  -7.3859174924365040e+06  1.3561215710766012e+07  -9.5721991244742610e+06  1.6511503265093256e+07  -1.0129376125549402e+07  1.5986457465905406e+07  -7.6973330488359164e+06  1.4673244248358347e+07  -9.5121016300020684e+06  1.9603130499459397e+07  2.5494786824173237e+00  0.0000000000000000e+00  4.5458503239528639e+06  -6.3024847383004585e+06  -1.7980127868687389e+06  -2.4024544327104714e+05  -3.5527152046375657e+06  1.3029901420823433e+06  -3.5811116513174628e+06  3.7836313181305076e+06  -4.4141790739512676e+06  3.6685121989435889e+06  -3.9782083212011168e+06  4.6633002715830002e+06  -5.4095571599751748e+06  4.0462222980077546e+06  -4.3310810642765844e+06  2.0064148586859039e+06  -3.0173651828060392e+06  2.4181670162631236e+06  -6.9294088776157321e+06  3.8308575488709440e+06  -7.3861048084302228e+06  2.1807109086800516e+06  -8.1089647101954333e+06  7.7538500700339244e+05  -7.0361494209355293e+06  -3.3562552882964858e+06  -4.5224936466943910e+06  -7.9586306768435305e+06  1.5565750880275732e+06  2.0974625189493574e+00  0.0000000000000000e+00  1.3337321167705264e+07  -8.2499662836995041e+06  8.2396811456642738e+06  -5.4803477892612824e+06  5.4616527239335384e+06  -3.8284936766302790e+06  5.2448001811082289e+06  -4.5064774546280876e+06  4.2131059822448771e+06  -3.9782083257665569e+06  5.2409540526994308e+06  -5.6832319983549099e+06  5.0448002223093044e+06  -4.0359755324355415e+06  4.7718028561248956e+06  -3.7551801771039283e+06  5.5369429374326319e+06  -5.9779785705241403e+06  9.9592620619220734e+06  -6.9296998430216089e+06  9.4935034270914700e+06  -5.2829617615098050e+06  9.8243109439219013e+06  -4.3466471353812916e+06  9.5739031706267055e+06  -4.6517931914185900e+06  1.2073696230210038e+07  -8.3147558935435098e+06  1.6884752330090120e+07  1.7083963308249941e+00  0.0000000000000000e+00  2.8003972058270625e+06  -6.0170657357558766e+06  -2.1058225037624650e+06  -1.6413244083342662e+06  -2.8970411375855035e+06  1.2778272142994620e+06  -4.4362804439950464e+06  2.9640836167047913e+06  -4.0487896240437743e+06  4.6633002969435900e+06  -5.6832320193449305e+06  4.4798532666896824e+06  -3.5278851377633386e+06  3.9612953360502427e+06  -4.7227546882093325e+06  3.3878993762880000e+06  -4.4247836372252433e+06  4.1040536135990284e+06  -5.9784021436754512e+06  2.4185341256883126e+06  -4.7293692852411754e+06  1.2183845374090460e+06  -5.0959700173974829e+06  -1.0559675016711892e+06  -4.2443138585434360e+06  -3.2888821749734324e+06  -3.7094344081351603e+06  -7.3797873351744507e+06  9.8831366526993155e+05  1.3761451586826727e+00  2.9530624440039254e-06  1.3892964501531735e+07  -8.5605220301732048e+06  9.1818628400052134e+06  -5.2067620116664832e+06  7.0110624455192368e+06  -5.0405764915713491e+06  6.5058583617332168e+06  -4.2455936847811267e+06  5.6962453549380377e+06  -5.4095571947637675e+06  5.0448002559533957e+06  -3.5278851453485996e+06  4.5158903840980381e+06  -5.9273515100575546e+06  5.1127155408870466e+06  -3.0697248594219889e+06  4.3534478342756787e+06  -4.4253508120307438e+06  5.5374509131728886e+06  -3.0174236351914601e+06  6.0613608173330287e+06  -4.0405583492755117e+06  7.5998820183218587e+06  -3.9664629898719392e+06  9.1759278434797712e+06  -5.9751536014657523e+06  1.1612834912454985e+07  -8.1925264718554635e+06  1.5424002787040215e+07  1.0948885440323075e+00  0.0000000000000000e+00  1.4934717392041865e+06  -6.4557666244904967e+06  -1.8934477841296634e+06  -2.3623640595657174e+06  -3.8934743928009938e+06  1.2364802428742670e+06  -4.2526475459726108e+06  2.4006692465393101e+06  -5.0878129880616171e+06  4.0462223730525603e+06  -4.0359755896245223e+06  3.9612953658483238e+06  -5.9273515484033693e+06  5.0917493400521344e+06  -1.8617662795901329e+06  5.7292261849045684e+05  -3.0704191112518231e+06  3.3885454335972588e+06  -3.7552472123294258e+06  2.0060513526533202e+06  -4.6518132521192124e+06  2.0269038365878738e+06  -4.3085815887685567e+06  -6.7905292201133752e+03  -4.5257628979835771e+06  -2.1536163035919089e+06  -2.8157503558531506e+06  -7.0827116539073195e+06  1.0361686815148408e+06  8.5912064776165642e-01  3.7488288532471349e-09  1.4519533494458077e+07  -8.0927866806216417e+06  1.0059773692740098e+07  -5.9082806715901131e+06  8.9552569399698079e+06  -5.0746572252667453e+06  7.0636778592791166e+06  -4.6790509145232989e+06  6.7975158253948316e+06  -4.3310811138866115e+06  4.7718029292952316e+06  -4.7227547722549383e+06  5.1127156511481116e+06  -1.8617663260919810e+06  -1.9021031096490007e+05  -1.8625356514542864e+06  5.1134645097883828e+06  -4.7228259720423026e+06  4.7713268223854257e+06  -4.3306497232565656e+06  6.7974684322084254e+06  -4.6792489891249789e+06  7.0638342028403357e+06  -5.0746646106013758e+06  8.9551948710104804e+06  -5.9082431947823586e+06  1.0059777287446935e+07  -8.0928001635725815e+06  1.4519538013681851e+07  6.6365025013631984e-01  0.0000000000000000e+00  1.0361745837724787e+06  -7.0827133898429591e+06  -2.8157702974950108e+06  -2.1535811973795006e+06  -4.5257559618740743e+06  -6.8915155313680525e+03  -4.3084523604899216e+06  2.0269448250274151e+06  -4.6521349300061390e+06  2.0064150048185326e+06  -3.7551803667169614e+06  3.3878995470755221e+06  -3.0697249938930231e+06  5.7292261846532044e+05  -1.8625356049502955e+06  5.0925365535636405e+06  -5.9274245419635177e+06  3.9607335035472284e+06  -4.0354492922504693e+06  4.0461727502799286e+06  -5.0880903613441652e+06  2.4008909007634283e+06  -4.2526537917816574e+06  1.2363798958057228e+06  -3.8934133006326100e+06  -2.3623564443639726e+06  -1.8934756628467182e+06  -6.4557554174030498e+06  1.4934732755988347e+06  5.0360075079974054e-01  0.0000000000000000e+00  1.5424002597247992e+07  -8.1925367916526627e+06  1.1612853308225222e+07  -5.9751493618287211e+06  9.1758678791734073e+06  -3.9663860103019355e+06  7.5999138215982486e+06  -4.0407789218119252e+06  6.0616134090646822e+06  -3.0173652740839659e+06  5.5369430903606592e+06  -4.4247837157705566e+06  4.3534478341979478e+06  -3.0704189766872004e+06  5.1134643995420169e+06  -5.9274245036096312e+06  4.5152962092085490e+06  -3.5273028174042017e+06  5.0447512354834015e+06  -5.4099060599458041e+06  5.6965308394296216e+06  -4.2455945553232869e+06  6.5057099990675300e+06  -5.0404841599319838e+06  7.0110762427207828e+06  -5.2068091538341725e+06  9.1818827167204339e+06  -8.5605153577204458e+06  1.3892957098029589e+07  3.7441015786511905e-01  0.0000000000000000e+00  9.8831094070323999e+05  -7.3797792656371426e+06  -3.7094310700236112e+06  -3.2889153685096544e+06  -4.2442703486374207e+06  -1.0559455199311399e+06  -5.0961091821008753e+06  1.2185456204411169e+06  -4.7293214782694522e+06  2.4181671443674946e+06  -5.9779787232916988e+06  4.1040536135558314e+06  -4.4253507333536288e+06  3.3885452627052986e+06  -4.7228258880605828e+06  3.9607334737330573e+06  -3.5273028098295415e+06  4.4798049430326596e+06  -5.6836243300038381e+06  4.6636331312117865e+06  -4.0487837638656497e+06  2.9638858415667866e+06  -4.4361554210084518e+06  1.2778504879336238e+06  -2.8971151636617938e+06  -1.6412925318531164e+06  -2.1058099146578819e+06  -6.0170833571059238e+06  2.8004007527693384e+06  2.7183114245583667e-01  -4.1149278689273980e-09  1.6884755361634009e+07  -8.3147548310420942e+06  1.2073679461472232e+07  -4.6517710426586289e+06  9.5739169982040245e+06  -4.3467296853958834e+06  9.8244062720803022e+06  -5.2829262271980727e+06  9.4932572757142428e+06  -6.9294088255354939e+06  9.9592620618189108e+06  -5.9784019908720674e+06  5.5374507601865539e+06  -3.7552470225800928e+06  4.7713267493271176e+06  -4.0354492350041126e+06  5.0447512018642863e+06  -5.6836243090063855e+06  5.2413044242642680e+06  -3.9781972046013023e+06  4.2128700418213187e+06  -4.5063237723450977e+06  5.2448344984388053e+06  -3.8285970874792151e+06  5.4616979127343576e+06  -5.4803253560994752e+06  8.2396493078004289e+06  -8.2499577675297745e+06  1.3337325997825628e+07  1.9193092962460961e-01  0.0000000000000000e+00  1.5565770370000682e+06  -7.9586386547862235e+06  -4.5224820636151396e+06  -3.3562475815703254e+06  -7.0361943130419729e+06  7.7543761239465757e+05  -8.1089391974088335e+06  2.1805559603011562e+06  -7.3859176356939971e+06  3.8308575484676184e+06  -6.9296998946442492e+06  2.4185339975615731e+06  -3.0174235439808620e+06  2.0060512063120180e+06  -4.3306496738416255e+06  4.0461726751113739e+06  -5.4099060252225604e+06  4.6636331058228137e+06  -3.9781972000415511e+06  3.6682618213263447e+06  -4.4140090033414951e+06  3.7836751039182292e+06  -3.5812421707162000e+06  1.3030481781856199e+06  -3.5526822009079382e+06  -2.4029352929590546e+05  -1.7980006315415457e+06  -6.3024724055100437e+06  4.5458412501577418e+06  1.3109140743433484e-01  0.0000000000000000e+00  1.9603128185810823e+07  -9.5120975433269367e+06  1.4673248322998535e+07  -7.6973568599959062e+06  1.5986484666989863e+07  -1.0129359804544749e+07  1.6511410816605741e+07  -9.5720863513861354e+06  1.3561215710553970e+07  -7.3861046644271985e+06  9.4935033613805156e+06  -4.7293690303555299e+06  6.0613606525482545e+06  -4.6518130299184332e+06  6.7974683337299014e+06  -5.0880902430382119e+06  5.6965307998381248e+06  -4.0487837243480249e+06  4.2128700286713690e+06  -4.4140089916555788e+06  4.3116704284773087e+06  -3.6943726563961804e+06  3.1811484579801615e+06  -3.7996587801541430e+06  4.7624542329570781e+06  -4.6109428417748613e+06  5.6623988188198376e+06  -7.4921864124120530e+06  1.3661450914111206e+07  8.6009045223449154e-02  0.0000000000000000e+00  9.9867402524663648e+05  -5.8478378554154374e+06  -9.1973835025722161e+06  1.6703539972293007e+05  -1.1748200550875906e+07  1.8070869880060516e+06  -1.0593522947013261e+07  2.9420029389279857e+06  -9.5721992582944613e+06  2.1807108229026501e+06  -5.2829617492251685e+06  1.2183843059595588e+06  -4.0405582506815307e+06  2.0269036648071192e+06  -4.6792489583763694e+06  2.4008908230156717e+06  -4.2455945541623691e+06  2.9638858010299597e+06  -4.5063237611016529e+06  3.7836750841654367e+06  -3.6943726526900306e+06  2.7017412559987009e+06  -3.5670475032889913e+06  2.6703798752061520e+06  -3.8302946500584562e+06  -2.1687169864804423e+05  -1.7185642173264921e+06  -5.3831711190940710e+06  6.2874458422026709e+06  5.3695040485103568e-02  2.2058050483544975e-08  2.8637748846159767e+07  -1.6495585523595834e+07  2.4531499961765714e+07  -1.7625428254296239e+07  2.6392071003779609e+07  -1.5244274069717772e+07  2.0173683515543979e+07  -1.0593588309590207e+07  1.6511503196887502e+07  -8.1089644007390942e+06  9.8243107845787685e+06  -5.0959696630917201e+06  7.5998818725125324e+06  -4.3085813608378572e+06  7.0638341388793495e+06  -4.2526536527527450e+06  6.5057099557764325e+06  -4.4361553302229587e+06  5.2448344733987115e+06  -3.5812421360066109e+06  3.1811484527164749e+06  -3.5670474963051230e+06  3.2048979453241373e+06  -3.9724488718889286e+06  2.3944894432136463e+06  -2.8164716234321948e+06  3.2956656665263507e+06  -6.7329049513323680e+06  1.4582262784086507e+07  3.1475046924983756e-02  0.0000000000000000e+00  -4.4870684349837275e+06  -8.0216928045815427e+05  -1.5266403930509642e+07  2.7612760325856330e+06  -1.6847608281641230e+07  4.7604768504482163e+06  -1.5244309840110181e+07  1.8071396768128367e+06  -1.0129376197322620e+07  7.7538477312112600e+05  -4.3466471059799958e+06  -1.0559677549635558e+06  -3.9664629665661305e+06  -6.7906956226556467e+03  -5.0746646102473792e+06  1.2363797812628010e+06  -5.0404841661703838e+06  1.2778504265759301e+06  -3.8285971069944925e+06  1.3030481526161723e+06  -3.7996587836397486e+06  2.6703798586074123e+06  -3.9724488676433624e+06  1.8496059433414524e+06  -2.5444347800771669e+06  3.9636084690518538e+05  -3.7189617680317750e+06  -2.7403388497125227e+06  8.7888277430367544e+06  1.6989446403489771e-02  0.0000000000000000e+00  4.9881149790371299e+07  -2.6970401938367084e+07  3.7930807652877234e+07  -2.5172674257578529e+07  3.1006132643927000e+07  -1.6847627587422982e+07  2.6392099860580243e+07  -1.1748211291673757e+07  1.5986457332173323e+07  -7.0361489732908821e+06  9.5739030284263622e+06  -4.2443134747984549e+06  9.1759277401431985e+06  -4.5257626213155314e+06  8.9551948126839492e+06  -3.8934131177020697e+06  7.0110762267450253e+06  -2.8971150546786687e+06  5.4616979057465727e+06  -3.5526821234731455e+06  4.7624542159974361e+06  -3.8302946110089659e+06  2.3944894394905264e+06  -2.5444347761124456e+06  1.0930375906240882e+06  -3.6841393209645418e+06  1.2698310128796711e+06  -3.0003422847384685e+06  1.5303286063359827e+07  8.1932129646459170e-03  0.0000000000000000e+00  -1.4931531264542056e+07  2.6754145845373101e+06  -2.4663410326491740e+07  1.0040146614534464e+07  -2.5172683651568137e+07  2.7612912226268556e+06  -1.762