<?xml version="1.0"?>
<VTKFile type="UnstructuredGrid"  version="0.1"  >
<UnstructuredGrid>
<Piece  NumberOfPoints="961" NumberOfCells="1800">
<Points>
<DataArray  type="Float64"  NumberOfComponents="3"  format="ascii">-1 -1 0  -0.9333333333333333 -1 0  -0.8666666666666667 -1 0  -0.8 -1 0  -0.7333333333333334 -1 0  -0.6666666666666667 -1 0  -0.6 -1 0  -0.5333333333333333 -1 0  -0.4666666666666667 -1 0  -0.4 -1 0  -0.3333333333333334 -1 0  -0.2666666666666667 -1 0  -0.2 -1 0  -0.1333333333333333 -1 0  -0.06666666666666665 -1 0  0 -1 0  0.06666666666666665 -1 0  0.1333333333333333 -1 0  0.2 -1 0  0.2666666666666666 -1 0  0.3333333333333333 -1 0  0.3999999999999999 -1 0  0.4666666666666666 -1 0  0.5333333333333334 -1 0  0.6000000000000001 -1 0  0.6666666666666667 -1 0  0.7333333333333334 -1 0  0.8 -1 0  0.8666666666666667 -1 0  0.9333333333333333 -1 0  1 -1 0  -1 -0.9333333333333333 0  -0.9333333333333333 -0.9333333333333333 0  -0.8666666666666667 -0.9333333333333333 0  -0.8 -0.9333333333333333 0  -0.7333333333333334 -0.9333333333333333 0  -0.6666666666666667 -0.9333333333333333 0  -0.6 -0.9333333333333333 0  -0.5333333333333333 -0.9333333333333333 0  -0.4666666666666667 -0.9333333333333333 0  -0.4 -0.9333333333333333 0  -0.3333333333333334 -0.9333333333333333 0  -0.2666666666666667 -0.9333333333333333 0  -0.2 -0.9333333333333333 0  -0.1333333333333333 -0.9333333333333333 0  -0.06666666666666665 -0.9333333333333333 0  0 -0.9333333333333333 0  0.06666666666666665 -0.9333333333333333 0  0.1333333333333333 -0.9333333333333333 0  0.2 -0.9333333333333333 0  0.2666666666666666 -0.9333333333333333 0  0.3333333333333333 -0.9333333333333333 0  0.3999999999999999 -0.9333333333333333 0  0.4666666666666666 -0.9333333333333333 0  0.5333333333333334 -0.9333333333333333 0  0.6000000000000001 -0.9333333333333333 0  0.6666666666666667 -0.9333333333333333 0  0.7333333333333334 -0.9333333333333333 0  0.8 -0.9333333333333333 0  0.8666666666666667 -0.9333333333333333 0  0.9333333333333333 -0.9333333333333333 0  1 -0.9333333333333333 0  -1 -0.8666666666666667 0  -0.9333333333333333 -0.8666666666666667 0  -0.8666666666666667 -0.8666666666666667 0  -0.8 -0.8666666666666667 0  -0.7333333333333334 -0.8666666666666667 0  -0.6666666666666667 -0.8666666666666667 0  -0.6 -0.8666666666666667 0  -0.5333333333333333 -0.8666666666666667 0  -0.4666666666666667 -0.8666666666666667 0  -0.4 -0.8666666666666667 0  -0.3333333333333334 -0.8666666666666667 0  -0.2666666666666667 -0.8666666666666667 0  -0.2 -0.8666666666666667 0  -0.1333333333333333 -0.8666666666666667 0  -0.06666666666666665 -0.8666666666666667 0  0 -0.8666666666666667 0  0.06666666666666665 -0.8666666666666667 0  0.1333333333333333 -0.8666666666666667 0  0.2 -0.8666666666666667 0  0.2666666666666666 -0.8666666666666667 0  0.3333333333333333 -0.8666666666666667 0  0.3999999999999999 -0.8666666666666667 0  0.4666666666666666 -0.8666666666666667 0  0.5333333333333334 -0.8666666666666667 0  0.6000000000000001 -0.8666666666666667 0  0.6666666666666667 -0.8666666666666667 0  0.7333333333333334 -0.8666666666666667 0  0.8 -0.8666666666666667 0  0.8666666666666667 -0.8666666666666667 0  0.9333333333333333 -0.8666666666666667 0  1 -0.8666666666666667 0  -1 -0.8 0  -0.9333333333333333 -0.8 0  -0.8666666666666667 -0.8 0  -0.8 -0.8 0  -0.7333333333333334 -0.8 0  -0.6666666666666667 -0.8 0  -0.6 -0.8 0  -0.5333333333333333 -0.8 0  -0.4666666666666667 -0.8 0  -0.4 -0.8 0  -0.3333333333333334 -0.8 0  -0.2666666666666667 -0.8 0  -0.2 -0.8 0  -0.1333333333333333 -0.8 0  -0.06666666666666665 -0.8 0  0 -0.8 0  0.06666666666666665 -0.8 0  0.1333333333333333 -0.8 0  0.2 -0.8 0  0.2666666666666666 -0.8 0  0.3333333333333333 -0.8 0  0.3999999999999999 -0.8 0  0.4666666666666666 -0.8 0  0.5333333333333334 -0.8 0  0.6000000000000001 -0.8 0  0.6666666666666667 -0.8 0  0.7333333333333334 -0.8 0  0.8 -0.8 0  0.8666666666666667 -0.8 0  0.9333333333333333 -0.8 0  1 -0.8 0  -1 -0.7333333333333334 0  -0.9333333333333333 -0.7333333333333334 0  -0.8666666666666667 -0.7333333333333334 0  -0.8 -0.7333333333333334 0  -0.7333333333333334 -0.7333333333333334 0  -0.6666666666666667 -0.7333333333333334 0  -0.6 -0.7333333333333334 0  -0.5333333333333333 -0.7333333333333334 0  -0.4666666666666667 -0.7333333333333334 0  -0.4 -0.7333333333333334 0  -0.3333333333333334 -0.7333333333333334 0  -0.2666666666666667 -0.7333333333333334 0  -0.2 -0.7333333333333334 0  -0.1333333333333333 -0.7333333333333334 0  -0.06666666666666665 -0.7333333333333334 0  0 -0.7333333333333334 0  0.06666666666666665 -0.7333333333333334 0  0.1333333333333333 -0.7333333333333334 0  0.2 -0.7333333333333334 0  0.2666666666666666 -0.7333333333333334 0  0.3333333333333333 -0.7333333333333334 0  0.3999999999999999 -0.7333333333333334 0  0.4666666666666666 -0.7333333333333334 0  0.5333333333333334 -0.7333333333333334 0  0.6000000000000001 -0.7333333333333334 0  0.6666666666666667 -0.7333333333333334 0  0.7333333333333334 -0.7333333333333334 0  0.8 -0.7333333333333334 0  0.8666666666666667 -0.7333333333333334 0  0.9333333333333333 -0.7333333333333334 0  1 -0.7333333333333334 0  -1 -0.6666666666666667 0  -0.9333333333333333 -0.6666666666666667 0  -0.8666666666666667 -0.6666666666666667 0  -0.8 -0.6666666666666667 0  -0.7333333333333334 -0.6666666666666667 0  -0.6666666666666667 -0.6666666666666667 0  -0.6 -0.6666666666666667 0  -0.5333333333333333 -0.6666666666666667 0  -0.4666666666666667 -0.6666666666666667 0  -0.4 -0.6666666666666667 0  -0.3333333333333334 -0.6666666666666667 0  -0.2666666666666667 -0.6666666666666667 0  -0.2 -0.6666666666666667 0  -0.1333333333333333 -0.6666666666666667 0  -0.06666666666666665 -0.6666666666666667 0  0 -0.6666666666666667 0  0.06666666666666665 -0.6666666666666667 0  0.1333333333333333 -0.6666666666666667 0  0.2 -0.6666666666666667 0  0.2666666666666666 -0.6666666666666667 0  0.3333333333333333 -0.6666666666666667 0  0.3999999999999999 -0.6666666666666667 0  0.4666666666666666 -0.6666666666666667 0  0.5333333333333334 -0.6666666666666667 0  0.6000000000000001 -0.6666666666666667 0  0.6666666666666667 -0.6666666666666667 0  0.7333333333333334 -0.6666666666666667 0  0.8 -0.6666666666666667 0  0.8666666666666667 -0.6666666666666667 0  0.9333333333333333 -0.6666666666666667 0  1 -0.6666666666666667 0  -1 -0.6 0  -0.9333333333333333 -0.6 0  -0.8666666666666667 -0.6 0  -0.8 -0.6 0  -0.7333333333333334 -0.6 0  -0.6666666666666667 -0.6 0  -0.6 -0.6 0  -0.5333333333333333 -0.6 0  -0.4666666666666667 -0.6 0  -0.4 -0.6 0  -0.3333333333333334 -0.6 0  -0.2666666666666667 -0.6 0  -0.2 -0.6 0  -0.1333333333333333 -0.6 0  -0.06666666666666665 -0.6 0  0 -0.6 0  0.06666666666666665 -0.6 0  0.1333333333333333 -0.6 0  0.2 -0.6 0  0.2666666666666666 -0.6 0  0.3333333333333333 -0.6 0  0.3999999999999999 -0.6 0  0.4666666666666666 -0.6 0  0.5333333333333334 -0.6 0  0.6000000000000001 -0.6 0  0.6666666666666667 -0.6 0  0.7333333333333334 -0.6 0  0.8 -0.6 0  0.8666666666666667 -0.6 0  0.9333333333333333 -0.6 0  1 -0.6 0  -1 -0.5333333333333333 0  -0.9333333333333333 -0.5333333333333333 0  -0.8666666666666667 -0.5333333333333333 0  -0.8 -0.5333333333333333 0  -0.7333333333333334 -0.5333333333333333 0  -0.6666666666666667 -0.5333333333333333 0  -0.6 -0.5333333333333333 0  -0.5333333333333333 -0.5333333333333333 0  -0.4666666666666667 -0.5333333333333333 0  -0.4 -0.5333333333333333 0  -0.3333333333333334 -0.5333333333333333 0  -0.2666666666666667 -0.5333333333333333 0  -0.2 -0.5333333333333333 0  -0.1333333333333333 -0.5333333333333333 0  -0.06666666666666665 -0.5333333333333333 0  0 -0.5333333333333333 0  0.06666666666666665 -0.5333333333333333 0  0.1333333333333333 -0.5333333333333333 0  0.2 -0.5333333333333333 0  0.2666666666666666 -0.5333333333333333 0  0.3333333333333333 -0.5333333333333333 0  0.3999999999999999 -0.5333333333333333 0  0.4666666666666666 -0.5333333333333333 0  0.5333333333333334 -0.5333333333333333 0  0.6000000000000001 -0.5333333333333333 0  0.6666666666666667 -0.5333333333333333 0  0.7333333333333334 -0.5333333333333333 0  0.8 -0.5333333333333333 0  0.8666666666666667 -0.5333333333333333 0  0.9333333333333333 -0.5333333333333333 0  1 -0.5333333333333333 0  -1 -0.4666666666666667 0  -0.9333333333333333 -0.4666666666666667 0  -0.8666666666666667 -0.4666666666666667 0  -0.8 -0.4666666666666667 0  -0.7333333333333334 -0.4666666666666667 0  -0.6666666666666667 -0.4666666666666667 0  -0.6 -0.4666666666666667 0  -0.5333333333333333 -0.4666666666666667 0  -0.4666666666666667 -0.4666666666666667 0  -0.4 -0.4666666666666667 0  -0.3333333333333334 -0.4666666666666667 0  -0.2666666666666667 -0.4666666666666667 0  -0.2 -0.4666666666666667 0  -0.1333333333333333 -0.4666666666666667 0  -0.06666666666666665 -0.4666666666666667 0  0 -0.4666666666666667 0  0.06666666666666665 -0.4666666666666667 0  0.1333333333333333 -0.4666666666666667 0  0.2 -0.4666666666666667 0  0.2666666666666666 -0.4666666666666667 0  0.3333333333333333 -0.4666666666666667 0  0.3999999999999999 -0.4666666666666667 0  0.4666666666666666 -0.4666666666666667 0  0.5333333333333334 -0.4666666666666667 0  0.6000000000000001 -0.4666666666666667 0  0.6666666666666667 -0.4666666666666667 0  0.7333333333333334 -0.4666666666666667 0  0.8 -0.4666666666666667 0  0.8666666666666667 -0.4666666666666667 0  0.9333333333333333 -0.4666666666666667 0  1 -0.4666666666666667 0  -1 -0.4 0  -0.9333333333333333 -0.4 0  -0.8666666666666667 -0.4 0  -0.8 -0.4 0  -0.7333333333333334 -0.4 0  -0.6666666666666667 -0.4 0  -0.6 -0.4 0  -0.5333333333333333 -0.4 0  -0.4666666666666667 -0.4 0  -0.4 -0.4 0  -0.3333333333333334 -0.4 0  -0.2666666666666667 -0.4 0  -0.2 -0.4 0  -0.1333333333333333 -0.4 0  -0.06666666666666665 -0.4 0  0 -0.4 0  0.06666666666666665 -0.4 0  0.1333333333333333 -0.4 0  0.2 -0.4 0  0.2666666666666666 -0.4 0  0.3333333333333333 -0.4 0  0.3999999999999999 -0.4 0  0.4666666666666666 -0.4 0  0.5333333333333334 -0.4 0  0.6000000000000001 -0.4 0  0.6666666666666667 -0.4 0  0.7333333333333334 -0.4 0 
[...]
<PointData  Scalars="f_24"> 
<DataArray  type="Float64"  Name="f_24"  format="ascii">0.0000000000000000e+00  0.0000000000000000e+00  0.0000000000000000e+00  0.0000000000000000e+00  0.0000000000000000e+00  0.0000000000000000e+00  0.0000000000000000e+00  0.0000000000000000e+00  0.0000000000000000e+00  0.0000000000000000e+00  0.0000000000000000e+00  0.0000000000000000e+00  0.0000000000000000e+00  0.0000000000000000e+00  0.0000000000000000e+00  0.0000000000000000e+00  0.0000000000000000e+00  0.0000000000000000e+00  0.0000000000000000e+00  0.0000000000000000e+00  0.0000000000000000e+00  0.0000000000000000e+00  0.0000000000000000e+00  0.0000000000000000e+00  0.0000000000000000e+00  -1.2421156019049159e-07  0.0000000000000000e+00  -2.4474962273861502e-08  0.0000000000000000e+00  0.0000000000000000e+00  1.2275295199613693e+01  0.0000000000000000e+00  1.1209461575948581e+07  1.2249979000838438e+07  1.7826525084012739e+07  1.2849601246232616e+07  1.7597783387692183e+07  1.0054157962956492e+07  1.6741033414979113e+07  7.1431528212635787e+06  1.5660803037914015e+07  5.1173067655407386e+06  1.5276404403842637e+07  3.0922723651660155e+06  1.5913639715791827e+07  1.5782062096426515e+06  1.6636450617924217e+07  1.0496544474784683e+06  1.7683743176441904e+07  9.9770964715868619e+05  1.9377647424821287e+07  1.6619398574939251e+06  2.2529826700146385e+07  1.0293134911795229e+06  3.2989539891960103e+07  -5.2936360783047564e+06  5.7570219488898180e+07  -1.7341234033280849e+07  9.5406827418586835e+07  -1.0656961123880737e+07  2.0750794013487932e+08  1.0718621066762928e+01  0.0000000000000000e+00  1.2249978981455993e+07  1.3473408438471666e+07  5.4356733878088295e+06  2.4355508575452841e+06  -3.6099931510185543e+06  -3.3139880474999873e+06  -7.9284199459393164e+06  -6.3628808658054173e+06  -8.7933197951447610e+06  -7.4093450788349584e+06  -9.6521383010119703e+06  -7.0632850942080021e+06  -9.9976928341588601e+06  -7.5607146269318946e+06  -9.4516612867687363e+06  -8.2849075950941136e+06  -9.5711258962728567e+06  -8.6368596542355418e+06  -9.7246618008216079e+06  -9.3209362040272709e+06  -1.1124910046699168e+07  -6.8961196076909509e+06  -1.9210333846356891e+07  -1.0695369828050199e+06  -3.1317113855159990e+07  2.9652418833280033e+06  -2.7077952239239670e+07  -1.6688072573544599e+07  -1.0656968850899564e+07  9.3149183275068630e+00  -5.1009540406553513e-09  1.7826525075683255e+07  5.4356733912083590e+06  1.9822925151008801e+06  -4.2782821037440784e+06  1.3344247768065871e+06  -4.4105795295236111e+06  3.7278943195476793e+06  -2.0370298638615545e+06  6.5264251075831968e+06  -2.0704065914792505e+06  9.5568112203333676e+06  -2.3847761461257832e+06  1.0677184499801820e+07  -2.1185351086831130e+06  1.1702431472198259e+07  -3.1846518780740476e+06  1.3487763018996676e+07  -4.2380617533061206e+06  1.3989952234597111e+07  -5.2184570892917924e+06  1.6945602912690271e+07  -1.0679475211684400e+07  2.8281698897813160e+07  -1.7754415335317209e+07  4.3721511579871893e+07  -2.8650530694404554e+07  5.2309301843975045e+07  -2.7077951707814135e+07  9.5406828919567928e+07  8.0538213709089170e+00  0.0000000000000000e+00  1.2849601186084690e+07  2.4355508762957943e+06  -4.2782821093669441e+06  5.8366956500757427e+05  -4.3409012108180616e+06  4.2968400316849962e+05  -3.2300986159411310e+06  -1.7617690017296458e+05  -5.2158351020274321e+06  -1.3259304942717520e+05  -6.1684319475076813e+06  -1.7157017873977644e+06  -5.8283674915933739e+06  -2.5354016801524679e+06  -6.6332839584098756e+06  -2.2946087094570547e+06  -6.7177320017838078e+06  -3.6218460479582385e+06  -5.2122400914016236e+06  -3.7364033351220083e+06  -8.7849784297696687e+06  2.6743232709537545e+05  -2.0348614297133666e+07  3.1667383488366380e+06  -2.9177423460032981e+07  1.1488482238665966e+07  -2.8650538823752731e+07  2.9652473699026750e+06  -1.7341240502431989e+07  6.9253275298008239e+00  -1.0172597092327885e-08  1.7597783370663147e+07  -3.6099931153733102e+06  1.3344247830205553e+06  -4.3409012143583558e+06  1.2546700630234703e+06  -2.8765019566244199e+06  2.8946996927876687e+06  -4.2570470612671338e+06  5.7040546021937486e+06  -3.8946775026278784e+06  6.5311803370436262e+06  -3.1320322038424513e+06  8.3197994637040431e+06  -4.2885569972231416e+06  1.0563909527664477e+07  -5.0202432463408886e+06  1.0820888824074425e+07  -4.6917101392554464e+06  1.1282179585412195e+07  -7.9250836681322427e+06  1.8675808717216678e+07  -1.3413517035595238e+07  3.0634774470126208e+07  -1.9411606580167603e+07  3.5837807564880297e+07  -2.9177433280260816e+07  4.3721520829950497e+07  -3.1317114856312074e+07  5.7570218975972421e+07  5.9197989967272830e+00  0.0000000000000000e+00  1.0054157875489624e+07  -3.3139879941531643e+06  -4.4105795794928195e+06  4.2968401426938811e+05  -2.8765019612016594e+06  2.2803231567353830e+06  -4.4008491215681275e+06  3.3007796919713486e+06  -4.1769423848259132e+06  1.7121419624761683e+06  -4.2346137988052005e+06  1.6538473514938504e+06  -5.6622002442214619e+06  1.5867476702868908e+06  -5.7117876053036116e+06  1.4901868726167674e+05  -4.4211710373362331e+06  -1.0454380610620177e+06  -4.8358497726214034e+06  1.0991751981187826e+06  -1.1498254499958616e+07  2.2981658893636256e+06  -1.7435638181467179e+07  5.6427164007702284e+06  -1.9411630108546291e+07  3.1667565292437589e+06  -1.7754422259536687e+07  -1.0695377677438508e+06  -5.2936382800456127e+06  5.0279609137617696e+00  7.4858552509031300e-09  1.6741033405893089e+07  -7.9284198932654206e+06  3.7278943145646462e+06  -3.2300985959292245e+06  2.8946996971473568e+06  -4.4008491264741151e+06  3.9207100614591418e+06  -3.9144177452584412e+06  3.8638008761756467e+06  -3.9815652120047556e+06  6.1954974459489286e+06  -5.0169406780910818e+06  7.6180531155665154e+06  -4.8276199936745642e+06  8.2517525491410065e+06  -4.8920551471092366e+06  8.8828810399887618e+06  -5.7798419998700907e+06  1.1489130617942579e+07  -9.2172195993155297e+06  1.9271652506159604e+07  -1.2041022704984916e+07  2.3532517119819671e+07  -1.7435679052227765e+07  3.0634808156052850e+07  -2.0348621079118136e+07  2.8281692900672376e+07  -1.9210327354781590e+07  3.2989538845760159e+07  4.2409023258704872e+00  0.0000000000000000e+00  7.1431527056162031e+06  -6.3628807904655226e+06  -2.0370299460950850e+06  -1.7617687050172346e+05  -4.2570471062280685e+06  3.3007797111258684e+06  -3.9144177533276202e+06  3.3015406628731843e+06  -4.1312498569348091e+06  4.4780345625458304e+06  -5.1329381190528125e+06  3.4843415385560240e+06  -4.8621411840547035e+06  2.8148023184253043e+06  -5.3714576896493649e+06  2.3830640230766889e+06  -4.6248051195586147e+06  1.4670958962240494e+06  -6.0300220506839566e+06  2.6248103689608956e+06  -1.0927167229334101e+07  3.5770383132481943e+06  -1.2041098877338858e+07  2.2982271371996901e+06  -1.3413530576743554e+07  2.6741790958282177e+05  -1.0679464222541140e+07  -6.8961208428440187e+06  1.0293090237444700e+06  3.5500759904700074e+00  1.8382311694278015e-08  1.5660803038591564e+07  -8.7933197182513028e+06  6.5264250902704196e+06  -5.2158350734746316e+06  5.7040546222077152e+06  -4.1769423809308871e+06  3.8638008823005888e+06  -4.1312498612223240e+06  5.0791375419943752e+06  -5.0420303728839187e+06  4.9090222500703866e+06  -4.6555202268613009e+06  6.6026147518754480e+06  -5.8677959549946636e+06  7.8710798765871497e+06  -5.3638794468283551e+06  7.0255323878353611e+06  -5.4413972869279040e+06  1.1014147145553760e+07  -8.4765156341699716e+06  1.5772331734215280e+07  -1.0927297444432851e+07  1.9271759458187647e+07  -1.1498273282283708e+07  1.8675777420674682e+07  -8.7849507538605686e+06  1.6945598315356750e+07  -1.1124914487167206e+07  2.2529829627957784e+07  2.9472982402263805e+00  0.0000000000000000e+00  5.1173066268497296e+06  -7.4093449884043904e+06  -2.0704067254677308e+06  -1.3259297363362566e+05  -3.8946775913696028e+06  1.7121419917288863e+06  -3.9815652520080847e+06  4.4780345853443854e+06  -5.0420303863900006e+06  4.2739922916812412e+06  -4.5816382791281212e+06  5.4001743618875770e+06  -6.2482253934770655e+06  4.6813275408093464e+06  -5.0034945234798212e+06  2.3234132478426839e+06  -3.4823912203212245e+06  2.8052769196092477e+06  -7.9924786921414901e+06  4.4627145076719234e+06  -8.4767321788704693e+06  2.6249895942221363e+06  -9.2172494512227587e+06  1.0991146557842009e+06  -7.9250322907018121e+06  -3.7364118922307808e+06  -5.2184711487474851e+06  -9.3209265698651355e+06  1.6619369186837764e+06  2.4247496690594961e+00  -7.9196399083078995e-09  1.5276404418056309e+07  -9.6521382181409150e+06  9.5568112215018012e+06  -6.1684319102910422e+06  6.5311803464345848e+06  -4.2346137768231081e+06  6.1954974751482122e+06  -5.1329381321552377e+06  4.9090222653081650e+06  -4.5816382844058620e+06  6.0658702581246635e+06  -6.5671586866922984e+06  5.8331493929767506e+06  -4.6651396924268873e+06  5.5168462750117714e+06  -4.3404785679211188e+06  6.4022852992245294e+06  -6.9074905950108981e+06  1.1521082506688301e+07  -7.9928150596624073e+06  1.1014431781490892e+07  -6.0300631430997951e+06  1.1489020598266963e+07  -4.8357543751805741e+06  1.1282163765397280e+07  -5.2122656526174312e+06  1.3989971761402220e+07  -9.7246628943992350e+06  1.9377644123329520e+07  1.9749737601343900e+00  0.0000000000000000e+00  3.0922721852541808e+06  -7.0632849677761607e+06  -2.3847763387121293e+06  -1.7157016899388663e+06  -3.1320323278175248e+06  1.6538474214703918e+06  -5.0169407825903483e+06  3.4843415852140086e+06  -4.6555202724558786e+06  5.4001743912059069e+06  -6.5671587109578867e+06  5.1795962242091913e+06  -4.0782540093795722e+06  4.5793536198507342e+06  -5.4597105873869127e+06  3.9165181355034579e+06  -5.1150308103044666e+06  4.7452431865621982e+06  -6.9079802623359691e+06  2.8057013126292964e+06  -5.4414528482819628e+06  1.4669099452027164e+06  -5.7796815289111184e+06  -1.0454631815429294e+06  -4.6917608784348546e+06  -3.6218073585325596e+06  -4.2380661270439057e+06  -8.6368686827453077e+06  9.9771233635214146e+05  1.5908782578699345e+00  1.1668520832215319e-06  1.5913639760860048e+07  -9.9976927482123990e+06  1.0677184504423661e+07  -5.8283674259383045e+06  8.3197994850268094e+06  -5.6622002384174336e+06  7.6180531663289312e+06  -4.8621411857545050e+06  6.6026147978127589e+06  -6.2482254336925372e+06  5.8331494318695320e+06  -4.0782540181473475e+06  5.2203892519180961e+06  -6.8523601652941946e+06  5.9103285241312208e+06  -3.5488638896257766e+06  5.0326807673704103e+06  -5.1156864868210144e+06  6.4028725392796379e+06  -3.4824587935895785e+06  7.0252405725856172e+06  -4.6245502435651543e+06  8.8828444438980967e+06  -4.4212600580525184e+06  1.0820958269477777e+07  -6.7177368774234224e+06  1.3487741836619917e+07  -9.5711138435260616e+06  1.7683743515152406e+07  1.2657344819344878e+00  0.0000000000000000e+00  1.5782059691314267e+06  -7.5607144734242456e+06  -2.1185353488271320e+06  -2.5354015477633271e+06  -4.2885572049513729e+06  1.5867478008093731e+06  -4.8276201534024253e+06  2.8148024077703250e+06  -5.8677960914728669e+06  4.6813276275648205e+06  -4.6651397585425423e+06  4.5793536542967390e+06  -6.8523602096245149e+06  5.8861569505531034e+06  -2.1523411528054890e+06  6.6224052562348195e+05  -3.5496664722089884e+06  3.9172650033144685e+06  -4.3405560632929299e+06  2.3229930204838272e+06  -5.3635078309098231e+06  2.3830168366359756e+06  -4.8922048022340471e+06  1.4913562125375876e+05  -5.0202515795724215e+06  -2.2946490738406726e+06  -3.1846291691137957e+06  -8.2849053938232604e+06  1.0496473061737812e+06  9.9317746444676913e-01  7.4976577064942699e-09  1.6636450693783613e+07  -9.4516611739041302e+06  1.1702431489597969e+07  -6.6332839029632984e+06  1.0563909599638084e+07  -5.7117876080334140e+06  8.2517526243268456e+06  -5.3714577258729506e+06  7.8710799908145396e+06  -5.0034945808279756e+06  5.5168463595953668e+06  -5.4597106845421502e+06  5.9103286515983669e+06  -2.1523412065617815e+06  -2.2003442123292666e+05  -2.1532305771170086e+06  5.9111943618164007e+06  -5.4597929943167316e+06  5.5162959611715954e+06  -5.0029958761909595e+06  7.8710252024164805e+06  -5.3716867079470977e+06  8.2519333636699207e+06  -5.7117961457757708e+06  1.0563837845463855e+07  -6.6332405782896765e+06  1.1702435645221403e+07  -9.4516767607279792e+06  1.6636455918185873e+07  7.6720594997585578e-01  0.0000000000000000e+00  1.0496541294165791e+06  -8.2849074006324541e+06  -3.1846522224424533e+06  -2.2946084896679893e+06  -5.0202435611571651e+06  1.4901887708195296e+05  -4.8920554092291631e+06  2.3830642208969635e+06  -5.3638797032735143e+06  2.3234134167787954e+06  -4.3404787871248117e+06  3.9165183329420611e+06  -3.5488640450826650e+06  6.6224052559288754e+05  -2.1532305233594798e+06  5.8870670005165003e+06  -6.8524445930668106e+06  4.5787041192453364e+06  -4.6645313379512373e+06  4.6812702616745047e+06  -5.8681167459618496e+06  2.8150586488233306e+06  -4.8276273738087257e+06  1.5866317956246671e+06  -4.2884865799848754e+06  -2.5353927442907598e+06  -2.1185675777266608e+06  -7.5607015175874485e+06  1.5782077452640191e+06  5.8218239554118478e-01  -1.5406718191165367e-08  1.7683743295745801e+07  -9.5711257736219093e+06  1.3487763102858353e+07  -6.7177319762352118e+06  1.0820888948364902e+07  -4.4211710666207485e+06  8.8828812097491585e+06  -4.6248052341489634e+06  7.0255325786236199e+06  -3.4823913258389393e+06  6.4022854760103961e+06  -5.1150309011053303e+06  5.0326807672835663e+06  -3.5496663166476958e+06  5.9111942343658572e+06  -6.8524445487263119e+06  5.2197023622356476e+06  -4.0775808240006319e+06  5.8330927622664878e+06  -6.2486287356472351e+06  6.6029448291808069e+06  -4.8621421921354057e+06  7.6178816532168621e+06  -5.6620934993884796e+06  8.3198154351373892e+06  -5.8284219241502257e+06  1.0677207482693056e+07  -9.9976850345918741e+06  1.5913631202118540e+07  4.3283294953864415e-01  0.0000000000000000e+00  9.9770918664359685e+05  -8.6368593540405817e+06  -4.2380622680549454e+06  -3.6218457315741382e+06  -4.6917105792611698e+06  -1.0454377697791765e+06  -5.7798424088164438e+06  1.4670961635624839e+06  -5.4413975815345570e+06  2.8052770677069272e+06  -6.9074907716139993e+06  4.7452431865098216e+06  -5.1156863958695494e+06  3.9172648057579552e+06  -5.4597928972289786e+06  4.5787040847777873e+06  -4.0775808152458766e+06  5.1795403601510627e+06  -6.5676122376031103e+06  5.4005591607894804e+06  -4.6555134978585970e+06  3.4841129493285855e+06  -5.0167962510714475e+06  1.6538743267110731e+06  -3.1321179048922127e+06  -1.7156648394662577e+06  -2.3847617852087780e+06  -7.0633053387533817e+06  3.0922762856592494e+06  3.1424755711011060e-01  4.1149278689273980e-09  1.9377647627914723e+07  -9.7246616661054157e+06  1.3989952376076048e+07  -5.2122400477735586e+06  1.1282179750623060e+07  -4.8358498062641891e+06  1.1489130801391918e+07  -6.0300220640225159e+06  1.1014147220751038e+07  -7.9924786319276849e+06  1.1521082506566204e+07  -6.9079800856851097e+06  6.4028723624189626e+06  -4.3405558439330701e+06  5.5162958767126482e+06  -4.6645312717689816e+06  5.8330927234033132e+06  -6.5676122133274330e+06  6.0662753015160235e+06  -4.5816254278998533e+06  4.9087495088423053e+06  -5.1327604693552488e+06  6.1955371473402930e+06  -4.2347333238570131e+06  6.5312325864774026e+06  -6.1684059766684165e+06  9.5567744156716280e+06  -9.6521283731110841e+06  1.5276410001866655e+07  2.2187974940437546e-01  0.0000000000000000e+00  1.6619391717720672e+06  -9.3209357926834803e+06  -5.2184577582500549e+06  -3.7364029829493621e+06  -7.9250841877544969e+06  1.0991754697012417e+06  -9.2172199574315436e+06  2.6248104677659958e+06  -8.4765157997829169e+06  4.4627145072066030e+06  -7.9928151193389772e+06  2.8057011645165267e+06  -3.4824586881483900e+06  2.3229928513067802e+06  -5.0029958190677287e+06  4.6812701747770077e+06  -6.2486286955089793e+06  5.4005591314376472e+06  -4.5816254226301368e+06  4.2737028452477427e+06  -5.0418337780353967e+06  4.4780852034475142e+06  -3.9817161375971613e+06  1.7122090837609470e+06  -3.8946394377515703e+06  -1.3264856298222370e+05  -2.0703926734281019e+06  -7.4093307312101424e+06  5.1172961371829249e+06  1.5154685431621850e-01  0.0000000000000000e+00  2.2529826953288011e+07  -1.1124909762807857e+07  1.6945603025802389e+07  -8.7849782805047482e+06  1.8675808866205547e+07  -1.1498254414557278e+07  1.9271652584078059e+07  -1.0927167074280029e+07  1.5772331733978029e+07  -8.4767320124014504e+06  1.1014431705520554e+07  -5.4414525536266472e+06  7.0252403820888298e+06  -5.3635075740362406e+06  7.8710250885729622e+06  -5.8681166091932645e+06  6.6029447834132006e+06  -4.6555134521722486e+06  4.9087494936409695e+06  -5.0418337645245660e+06  5.0791924980006898e+06  -4.1314192466230937e+06  3.8638785101366886e+06  -4.1768918094235687e+06  5.7039798877047906e+06  -5.2158156899687955e+06  6.5264491851300551e+06  -8.7933404500152096e+06  1.5660805482045408e+07  9.9429856912977801e-02  0.0000000000000000e+00  1.0293125402487117e+06  -6.8961191235238826e+06  -1.0679476040471219e+07  2.6743266955330630e+05  -1.3413517597305307e+07  2.2981660559298648e+06  -1.2041023008479690e+07  3.5770383123786151e+06  -1.0927297599134322e+07  2.6249894950605012e+06  -6.0300631288955519e+06  1.4669096776344616e+06  -4.6245501295941127e+06  2.3830166380515229e+06  -5.3716866724072639e+06  2.8150585589425219e+06  -4.8621421907970337e+06  3.4841129024642291e+06  -5.1327604563597292e+06  4.4780851806116682e+06  -4.1314192423401983e+06  3.3016221302574733e+06  -3.9143598173964727e+06  3.3006906992572783e+06  -4.2570244845560342e+06  -1.7614206383707450e+05  -2.0370627655241508e+06  -6.3628768461744254e+06  7.1431600355443712e+06  6.2073591527923119e-02  2.2058050483544975e-08  3.2989540075279903e+07  -1.9210333299619056e+07  2.8281699048401192e+07  -2.0348614070954423e+07  3.0634774636100046e+07  -1.7435637941131130e+07  2.3532517117897201e+07  -1.2041098570202602e+07  1.9271759379341744e+07  -9.2172490934787132e+06  1.1489020414062031e+07  -5.7796811193225756e+06  8.8828442753419410e+06  -4.8922045387380049e+06  8.2519332897298289e+06  -4.8276272130816784e+06  7.6178816031721188e+06  -5.0167961461170278e+06  6.1955371183944810e+06  -3.9817160974708302e+06  3.8638785040509687e+06  -3.9143598093234790e+06  3.9206156830960847e+06  -4.4008244062409028e+06  2.8947425419126223e+06  -3.2301405440253057e+06  3.7278980450476287e+06  -7.9284029951372184e+06  1.6741024483769450e+07  3.6386399721324014e-02  0.0000000000000000e+00  -5.2936374885183936e+06  -1.0695362701187676e+06  -1.7754416446972724e+07  3.1667386427195244e+06  -1.9411607177161988e+07  5.6427164017828209e+06  -1.7435679293113839e+07  2.2982269662853605e+06  -1.1498273365247987e+07  1.0991143854179587e+06  -4.8357543411896285e+06  -1.0454634743556543e+06  -4.4212600311106434e+06  1.4913542888333302e+05  -5.7117961453675646e+06  1.5866316632070777e+06  -5.6620935066044461e+06  1.6538742557755841e+06  -4.2347333464235384e+06  1.7122090541945212e+06  -4.1768918134618877e+06  3.3006906800601203e+06  -4.4008244013390429e+06  2.2803690880056550e+06  -2.8765496821901384e+06  4.2968763633504411e+05  -4.4105558178583086e+06  -3.3140034817032209e+06  1.0054156939769303e+07  1.9640472319381892e-02  0.0000000000000000e+00  5.7570219494712025e+07  -3.1317113000600506e+07  4.3721511848876894e+07  -2.9177422967681859e+07  3.5837807554121003e+07  -1.9411629495408136e+07  3.0634807995714758e+07  -1.3413530014077071e+07  1.8675777266097121e+07  -7.9250317731887447e+06  1.1282163601027338e+07  -4.6917604347946094e+06  1.0820958150028540e+07  -5.0202512597259060e+06  1.0563837778044788e+07  -4.2884863685084162e+06  8.3198154166702861e+06  -3.1321177789044878e+06  6.5312325783931762e+06  -3.8946393482435076e+06  5.7039798680870673e+06  -4.2570244394245027e+06  2.8947425376009019e+06  -2.8765496776087009e+06  1.2546735347306123e+06  -4.3408727985798949e+06  1.3344042631655650e+06  -3.6099943995926115e+06  1.7597790878676035e+07  9.4716783947636426e-03  0.0000000000000000e+00  -1.7341236454347175e+07  2.9652428532144278e+06  -2.8650531894054800e+07  1.1488482223703446e+07  -2.9177433827510651e+07  3.1667562030051555e+06  -2.03486