<?xml version="1.0"?>
<VTKFile type="UnstructuredGrid"  version="0.1"  >
<UnstructuredGrid>
<Piece  NumberOfPoints="961" NumberOfCells="1800">
<Points>
<DataArray  type="Float64"  NumberOfComponents="3"  format="ascii">-1 -1 0  -0.9333333333333333 -1 0  -0.8666666666666667 -1 0  -0.8 -1 0  -0.7333333333333334 -1 0  -0.6666666666666667 -1 0  -0.6 -1 0  -0.5333333333333333 -1 0  -0.4666666666666667 -1 0  -0.4 -1 0  -0.3333333333333334 -1 0  -0.2666666666666667 -1 0  -0.2 -1 0  -0.1333333333333333 -1 0  -0.06666666666666665 -1 0  0 -1 0  0.06666666666666665 -1 0  0.1333333333333333 -1 0  0.2 -1 0  0.2666666666666666 -1 0  0.3333333333333333 -1 0  0.3999999999999999 -1 0  0.4666666666666666 -1 0  0.5333333333333334 -1 0  0.6000000000000001 -1 0  0.6666666666666667 -1 0  0.7333333333333334 -1 0  0.8 -1 0  0.8666666666666667 -1 0  0.9333333333333333 -1 0  1 -1 0  -1 -0.9333333333333333 0  -0.9333333333333333 -0.9333333333333333 0  -0.8666666666666667 -0.9333333333333333 0  -0.8 -0.9333333333333333 0  -0.7333333333333334 -0.9333333333333333 0  -0.6666666666666667 -0.9333333333333333 0  -0.6 -0.9333333333333333 0  -0.5333333333333333 -0.9333333333333333 0  -0.4666666666666667 -0.9333333333333333 0  -0.4 -0.9333333333333333 0  -0.3333333333333334 -0.9333333333333333 0  -0.2666666666666667 -0.9333333333333333 0  -0.2 -0.9333333333333333 0  -0.1333333333333333 -0.9333333333333333 0  -0.06666666666666665 -0.9333333333333333 0  0 -0.9333333333333333 0  0.06666666666666665 -0.9333333333333333 0  0.1333333333333333 -0.9333333333333333 0  0.2 -0.9333333333333333 0  0.2666666666666666 -0.9333333333333333 0  0.3333333333333333 -0.9333333333333333 0  0.3999999999999999 -0.9333333333333333 0  0.4666666666666666 -0.9333333333333333 0  0.5333333333333334 -0.9333333333333333 0  0.6000000000000001 -0.9333333333333333 0  0.6666666666666667 -0.9333333333333333 0  0.7333333333333334 -0.9333333333333333 0  0.8 -0.9333333333333333 0  0.8666666666666667 -0.9333333333333333 0  0.9333333333333333 -0.9333333333333333 0  1 -0.9333333333333333 0  -1 -0.8666666666666667 0  -0.9333333333333333 -0.8666666666666667 0  -0.8666666666666667 -0.8666666666666667 0  -0.8 -0.8666666666666667 0  -0.7333333333333334 -0.8666666666666667 0  -0.6666666666666667 -0.8666666666666667 0  -0.6 -0.8666666666666667 0  -0.5333333333333333 -0.8666666666666667 0  -0.4666666666666667 -0.8666666666666667 0  -0.4 -0.8666666666666667 0  -0.3333333333333334 -0.8666666666666667 0  -0.2666666666666667 -0.8666666666666667 0  -0.2 -0.8666666666666667 0  -0.1333333333333333 -0.8666666666666667 0  -0.06666666666666665 -0.8666666666666667 0  0 -0.8666666666666667 0  0.06666666666666665 -0.8666666666666667 0  0.1333333333333333 -0.8666666666666667 0  0.2 -0.8666666666666667 0  0.2666666666666666 -0.8666666666666667 0  0.3333333333333333 -0.8666666666666667 0  0.3999999999999999 -0.8666666666666667 0  0.4666666666666666 -0.8666666666666667 0  0.5333333333333334 -0.8666666666666667 0  0.6000000000000001 -0.8666666666666667 0  0.6666666666666667 -0.8666666666666667 0  0.7333333333333334 -0.8666666666666667 0  0.8 -0.8666666666666667 0  0.8666666666666667 -0.8666666666666667 0  0.9333333333333333 -0.8666666666666667 0  1 -0.8666666666666667 0  -1 -0.8 0  -0.9333333333333333 -0.8 0  -0.8666666666666667 -0.8 0  -0.8 -0.8 0  -0.7333333333333334 -0.8 0  -0.6666666666666667 -0.8 0  -0.6 -0.8 0  -0.5333333333333333 -0.8 0  -0.4666666666666667 -0.8 0  -0.4 -0.8 0  -0.3333333333333334 -0.8 0  -0.2666666666666667 -0.8 0  -0.2 -0.8 0  -0.1333333333333333 -0.8 0  -0.06666666666666665 -0.8 0  0 -0.8 0  0.06666666666666665 -0.8 0  0.1333333333333333 -0.8 0  0.2 -0.8 0  0.2666666666666666 -0.8 0  0.3333333333333333 -0.8 0  0.3999999999999999 -0.8 0  0.4666666666666666 -0.8 0  0.5333333333333334 -0.8 0  0.6000000000000001 -0.8 0  0.6666666666666667 -0.8 0  0.7333333333333334 -0.8 0  0.8 -0.8 0  0.8666666666666667 -0.8 0  0.9333333333333333 -0.8 0  1 -0.8 0  -1 -0.7333333333333334 0  -0.9333333333333333 -0.7333333333333334 0  -0.8666666666666667 -0.7333333333333334 0  -0.8 -0.7333333333333334 0  -0.7333333333333334 -0.7333333333333334 0  -0.6666666666666667 -0.7333333333333334 0  -0.6 -0.7333333333333334 0  -0.5333333333333333 -0.7333333333333334 0  -0.4666666666666667 -0.7333333333333334 0  -0.4 -0.7333333333333334 0  -0.3333333333333334 -0.7333333333333334 0  -0.2666666666666667 -0.7333333333333334 0  -0.2 -0.7333333333333334 0  -0.1333333333333333 -0.7333333333333334 0  -0.06666666666666665 -0.7333333333333334 0  0 -0.7333333333333334 0  0.06666666666666665 -0.7333333333333334 0  0.1333333333333333 -0.7333333333333334 0  0.2 -0.7333333333333334 0  0.2666666666666666 -0.7333333333333334 0  0.3333333333333333 -0.7333333333333334 0  0.3999999999999999 -0.7333333333333334 0  0.4666666666666666 -0.7333333333333334 0  0.5333333333333334 -0.7333333333333334 0  0.6000000000000001 -0.7333333333333334 0  0.6666666666666667 -0.7333333333333334 0  0.7333333333333334 -0.7333333333333334 0  0.8 -0.7333333333333334 0  0.8666666666666667 -0.7333333333333334 0  0.9333333333333333 -0.7333333333333334 0  1 -0.7333333333333334 0  -1 -0.6666666666666667 0  -0.9333333333333333 -0.6666666666666667 0  -0.8666666666666667 -0.6666666666666667 0  -0.8 -0.6666666666666667 0  -0.7333333333333334 -0.6666666666666667 0  -0.6666666666666667 -0.6666666666666667 0  -0.6 -0.6666666666666667 0  -0.5333333333333333 -0.6666666666666667 0  -0.4666666666666667 -0.6666666666666667 0  -0.4 -0.6666666666666667 0  -0.3333333333333334 -0.6666666666666667 0  -0.2666666666666667 -0.6666666666666667 0  -0.2 -0.6666666666666667 0  -0.1333333333333333 -0.6666666666666667 0  -0.06666666666666665 -0.6666666666666667 0  0 -0.6666666666666667 0  0.06666666666666665 -0.6666666666666667 0  0.1333333333333333 -0.6666666666666667 0  0.2 -0.6666666666666667 0  0.2666666666666666 -0.6666666666666667 0  0.3333333333333333 -0.6666666666666667 0  0.3999999999999999 -0.6666666666666667 0  0.4666666666666666 -0.6666666666666667 0  0.5333333333333334 -0.6666666666666667 0  0.6000000000000001 -0.6666666666666667 0  0.6666666666666667 -0.6666666666666667 0  0.7333333333333334 -0.6666666666666667 0  0.8 -0.6666666666666667 0  0.8666666666666667 -0.6666666666666667 0  0.9333333333333333 -0.6666666666666667 0  1 -0.6666666666666667 0  -1 -0.6 0  -0.9333333333333333 -0.6 0  -0.8666666666666667 -0.6 0  -0.8 -0.6 0  -0.7333333333333334 -0.6 0  -0.6666666666666667 -0.6 0  -0.6 -0.6 0  -0.5333333333333333 -0.6 0  -0.4666666666666667 -0.6 0  -0.4 -0.6 0  -0.3333333333333334 -0.6 0  -0.2666666666666667 -0.6 0  -0.2 -0.6 0  -0.1333333333333333 -0.6 0  -0.06666666666666665 -0.6 0  0 -0.6 0  0.06666666666666665 -0.6 0  0.1333333333333333 -0.6 0  0.2 -0.6 0  0.2666666666666666 -0.6 0  0.3333333333333333 -0.6 0  0.3999999999999999 -0.6 0  0.4666666666666666 -0.6 0  0.5333333333333334 -0.6 0  0.6000000000000001 -0.6 0  0.6666666666666667 -0.6 0  0.7333333333333334 -0.6 0  0.8 -0.6 0  0.8666666666666667 -0.6 0  0.9333333333333333 -0.6 0  1 -0.6 0  -1 -0.5333333333333333 0  -0.9333333333333333 -0.5333333333333333 0  -0.8666666666666667 -0.5333333333333333 0  -0.8 -0.5333333333333333 0  -0.7333333333333334 -0.5333333333333333 0  -0.6666666666666667 -0.5333333333333333 0  -0.6 -0.5333333333333333 0  -0.5333333333333333 -0.5333333333333333 0  -0.4666666666666667 -0.5333333333333333 0  -0.4 -0.5333333333333333 0  -0.3333333333333334 -0.5333333333333333 0  -0.2666666666666667 -0.5333333333333333 0  -0.2 -0.5333333333333333 0  -0.1333333333333333 -0.5333333333333333 0  -0.06666666666666665 -0.5333333333333333 0  0 -0.5333333333333333 0  0.06666666666666665 -0.5333333333333333 0  0.1333333333333333 -0.5333333333333333 0  0.2 -0.5333333333333333 0  0.2666666666666666 -0.5333333333333333 0  0.3333333333333333 -0.5333333333333333 0  0.3999999999999999 -0.5333333333333333 0  0.4666666666666666 -0.5333333333333333 0  0.5333333333333334 -0.5333333333333333 0  0.6000000000000001 -0.5333333333333333 0  0.6666666666666667 -0.5333333333333333 0  0.7333333333333334 -0.5333333333333333 0  0.8 -0.5333333333333333 0  0.8666666666666667 -0.5333333333333333 0  0.9333333333333333 -0.5333333333333333 0  1 -0.5333333333333333 0  -1 -0.4666666666666667 0  -0.9333333333333333 -0.4666666666666667 0  -0.8666666666666667 -0.4666666666666667 0  -0.8 -0.4666666666666667 0  -0.7333333333333334 -0.4666666666666667 0  -0.6666666666666667 -0.4666666666666667 0  -0.6 -0.4666666666666667 0  -0.5333333333333333 -0.4666666666666667 0  -0.4666666666666667 -0.4666666666666667 0  -0.4 -0.4666666666666667 0  -0.3333333333333334 -0.4666666666666667 0  -0.2666666666666667 -0.4666666666666667 0  -0.2 -0.4666666666666667 0  -0.1333333333333333 -0.4666666666666667 0  -0.06666666666666665 -0.4666666666666667 0  0 -0.4666666666666667 0  0.06666666666666665 -0.4666666666666667 0  0.1333333333333333 -0.4666666666666667 0  0.2 -0.4666666666666667 0  0.2666666666666666 -0.4666666666666667 0  0.3333333333333333 -0.4666666666666667 0  0.3999999999999999 -0.4666666666666667 0  0.4666666666666666 -0.4666666666666667 0  0.5333333333333334 -0.4666666666666667 0  0.6000000000000001 -0.4666666666666667 0  0.6666666666666667 -0.4666666666666667 0  0.7333333333333334 -0.4666666666666667 0  0.8 -0.4666666666666667 0  0.8666666666666667 -0.4666666666666667 0  0.9333333333333333 -0.4666666666666667 0  1 -0.4666666666666667 0  -1 -0.4 0  -0.9333333333333333 -0.4 0  -0.8666666666666667 -0.4 0  -0.8 -0.4 0  -0.7333333333333334 -0.4 0  -0.6666666666666667 -0.4 0  -0.6 -0.4 0  -0.5333333333333333 -0.4 0  -0.4666666666666667 -0.4 0  -0.4 -0.4 0  -0.3333333333333334 -0.4 0  -0.2666666666666667 -0.4 0  -0.2 -0.4 0  -0.1333333333333333 -0.4 0  -0.06666666666666665 -0.4 0  0 -0.4 0  0.06666666666666665 -0.4 0  0.1333333333333333 -0.4 0  0.2 -0.4 0  0.2666666666666666 -0.4 0  0.3333333333333333 -0.4 0  0.3999999999999999 -0.4 0  0.4666666666666666 -0.4 0  0.5333333333333334 -0.4 0  0.6000000000000001 -0.4 0  0.6666666666666667 -0.4 0  0.7333333333333334 -0.4 0 
[...]
<PointData  Scalars="f_24"> 
<DataArray  type="Float64"  Name="f_24"  format="ascii">0.0000000000000000e+00  0.0000000000000000e+00  0.0000000000000000e+00  0.0000000000000000e+00  0.0000000000000000e+00  0.0000000000000000e+00  0.0000000000000000e+00  0.0000000000000000e+00  0.0000000000000000e+00  0.0000000000000000e+00  0.0000000000000000e+00  0.0000000000000000e+00  0.0000000000000000e+00  0.0000000000000000e+00  0.0000000000000000e+00  0.0000000000000000e+00  0.0000000000000000e+00  0.0000000000000000e+00  0.0000000000000000e+00  0.0000000000000000e+00  0.0000000000000000e+00  0.0000000000000000e+00  0.0000000000000000e+00  0.0000000000000000e+00  0.0000000000000000e+00  -2.7884543702385065e-07  0.0000000000000000e+00  -2.2027466046475352e-07  0.0000000000000000e+00  0.0000000000000000e+00  1.4843895781256846e+01  0.0000000000000000e+00  1.3097720523185428e+07  1.3969640358133391e+07  2.0389186118556608e+07  1.4122143057160433e+07  1.9666630709317777e+07  1.0413660599083545e+07  1.8394724975210834e+07  6.7369082109101433e+06  1.6986327379385561e+07  4.2283438020893801e+06  1.6488239765151067e+07  1.7656267917498336e+06  1.7252088269816395e+07  -6.6256445083503422e+04  1.8124751395385373e+07  -7.0720348130559549e+05  1.9389842538234901e+07  -7.7010867443436314e+05  2.1446280339696538e+07  5.3000604277742437e+04  2.5300667003431976e+07  -6.3550086422821239e+05  3.8067166898749545e+07  -8.0962695124828229e+06  6.8041176895215034e+07  -2.2313372369643491e+07  1.1423632570587054e+08  -1.3678098312480137e+07  2.5043954125688025e+08  1.2961488212423609e+01  0.0000000000000000e+00  1.3969640333556715e+07  1.4898039429145122e+07  4.9080829904802460e+06  1.2340862454054840e+06  -5.9555289249227643e+06  -5.3908249897381729e+06  -1.0713780364929499e+07  -8.5667081729178652e+06  -1.1262380613467470e+07  -9.3819080224696044e+06  -1.1917992113279892e+07  -8.6552798205399867e+06  -1.2104817601798721e+07  -9.1009611960499641e+06  -1.1365323233168928e+07  -9.9697373738431036e+06  -1.1579512266560499e+07  -1.0540014281471264e+07  -1.1989372615564698e+07  -1.1670580075225985e+07  -1.4062129194230147e+07  -9.1886113443321194e+06  -2.4330135513893608e+07  -2.6457301357997125e+06  -3.9413100227724306e+07  1.9323603944043883e+06  -3.4338321769599624e+07  -2.1487118060920238e+07  -1.3678107654885190e+07  1.1264061243005584e+01  -3.4006360271035674e-09  2.0389186106323469e+07  4.9080829940292463e+06  7.5470728208526748e+05  -6.4490627218047995e+06  8.2271207105803245e+05  -5.6346935810801974e+06  4.6026882467568191e+06  -2.0553382949541279e+06  8.5006765369173624e+06  -1.7482109656684713e+06  1.2377862395316277e+07  -2.0054641268182634e+06  1.3793106457512997e+07  -1.6584793181171264e+06  1.5036894437886423e+07  -2.9551915789420675e+06  1.7175819827629093e+07  -4.2667099300772706e+06  1.7712122809463102e+07  -5.5793162611432951e+06  2.1069553343310691e+07  -1.2522481851391666e+07  3.4267778650969535e+07  -2.1770582570201311e+07  5.2070921014303789e+07  -3.5883261045667082e+07  6.1644506942193948e+07  -3.4338321126775682e+07  1.1423632752276364e+08  9.7390800825264421e+00  0.0000000000000000e+00  1.4122142981513537e+07  1.2340862673325422e+06  -6.4490627288385844e+06  1.4033720361000148e+05  -5.1571667472657533e+06  1.0569709458682279e+06  -3.1162487620743732e+06  6.6183033916934312e+05  -5.4291418718987983e+06  6.6023660028568259e+05  -6.6970049463021103e+06  -1.3791145838756550e+06  -6.3954205713700689e+06  -2.4459889708069479e+06  -7.4091067064930284e+06  -2.1546779814651581e+06  -7.4748597594297118e+06  -3.6847366290675080e+06  -5.5532250805375427e+06  -3.7060016740803742e+06  -9.7693609276419431e+06  1.1725719507513985e+06  -2.3849068046290506e+07  4.3380586070571840e+06  -3.5208113052467287e+07  1.3329803399275158e+07  -3.5883270875378385e+07  1.9323670298339855e+06  -2.2313380189364232e+07  8.3744495290563314e+00  -3.9141986553611031e-09  1.9666630685310371e+07  -5.9555288823594637e+06  8.2271207850018144e+05  -5.1571667512982748e+06  2.1501215815094463e+06  -2.6295273302001874e+06  4.3265946702219741e+06  -4.4296128536563469e+06  7.4658340651754094e+06  -4.2534860304290690e+06  8.2474618899717703e+06  -3.4921548299886659e+06  1.0300324653486123e+07  -4.9554716184173655e+06  1.2982400475495312e+07  -5.8398123238513917e+06  1.3323605509022694e+07  -5.3778290325958384e+06  1.3987986576505022e+07  -9.1257491339989435e+06  2.3141308240839217e+07  -1.5503016208568219e+07  3.7837659635808706e+07  -2.2650828993633043e+07  4.3912289835328527e+07  -3.5208124928062119e+07  5.2070932199908912e+07  -3.9413101437809631e+07  6.8041176277975470e+07  7.1585145550042668e+00  0.0000000000000000e+00  1.0413660489730097e+07  -5.3908249253846761e+06  -5.6346936413577367e+06  1.0569709596362845e+06  -2.6295273357767873e+06  3.5558551562154097e+06  -4.6963049403993385e+06  4.4231625804834627e+06  -4.7500784003474656e+06  2.2695794251532592e+06  -4.9710419220243655e+06  2.1078970158703574e+06  -6.7505781013878947e+06  1.9994784525705606e+06  -6.8233824805438435e+06  2.6554624922315584e+05  -5.2479565018116599e+06  -1.1445600390836748e+06  -5.6954806506439699e+06  1.5352628676827298e+06  -1.3606989657955954e+07  3.2146319761195248e+06  -2.0460280853757795e+07  7.6184441061965786e+06  -2.2650857445071220e+07  4.3380805913140010e+06  -2.1770590943167292e+07  -2.6457310845355056e+06  -8.0962721711338917e+06  6.0800597120028055e+00  1.2476425418171884e-09  1.8394724960618768e+07  -1.0713780300939389e+07  4.6026882409533802e+06  -3.1162487374914186e+06  4.3265946754262922e+06  -4.6963049462343454e+06  5.1230300157605158e+06  -4.5053762913857168e+06  4.7923987488760287e+06  -4.7399694504060866e+06  7.5254459915382192e+06  -6.0384285549274161e+06  9.2188113544411268e+06  -5.8244922643904528e+06  9.9780349153723307e+06  -5.9032050906650173e+06  1.0745639644050419e+07  -6.9604715360782510e+06  1.3927663106800141e+07  -1.1057245501829168e+07  2.3424114057717465e+07  -1.4327397798258051e+07  2.8820817745924592e+07  -2.0460330276878607e+07  3.7837700370426387e+07  -2.3849076247916840e+07  3.4267771398339354e+07  -2.4330127663965590e+07  3.8067165636922561e+07  5.1283094312625872e+00  0.0000000000000000e+00  6.7369080677317986e+06  -8.5667080811776090e+06  -2.0553383941403802e+06  6.6183037537890393e+05  -4.4296129081322961e+06  4.4231626037121387e+06  -4.5053763012338076e+06  4.0978446982704443e+06  -4.9385105125580374e+06  5.4357964525429383e+06  -6.1873508882989399e+06  4.2186537577928621e+06  -5.8677622751116259e+06  3.4087056049521733e+06  -6.4834902759530414e+06  2.8892778443323751e+06  -5.5794314417007379e+06  1.7847019958076621e+06  -7.2773140343441898e+06  3.1979177038621139e+06  -1.3150734259814473e+07  4.4485429589613853e+06  -1.4327489909486689e+07  3.2147060400196901e+06  -1.5503032582915785e+07  1.1725545160652814e+06  -1.2522468563074548e+07  -9.1886128382043149e+06  -6.3550626279287622e+05  4.2929279631285242e+00  1.0813124526045891e-08  1.6986327377123628e+07  -1.1262380519579433e+07  8.5006765160989948e+06  -5.4291418370692357e+06  7.4658340891929837e+06  -4.7500783955188217e+06  4.7923987561913924e+06  -4.9385105176508091e+06  6.1535499174237689e+06  -6.0869263902798928e+06  5.9302879820632711e+06  -5.6289326106804796e+06  7.9743755717566656e+06  -7.0962331118617542e+06  9.5055216840629783e+06  -6.4886225248232828e+06  8.4834631021399423e+06  -6.5771890668134149e+06  1.3314826541310711e+07  -1.0235591352832533e+07  1.9075935192156002e+07  -1.3150891722446598e+07  2.3424243389393885e+07  -1.3607012370518457e+07  2.3141270395457689e+07  -9.7693274607273787e+06  2.1069547783205222e+07  -1.4062134564346068e+07  2.5300670546745531e+07  3.5640193827045401e+00  0.0000000000000000e+00  4.2283436318238592e+06  -9.3819079121140484e+06  -1.7482111276384445e+06  6.6023669216444599e+05  -4.2534861378839528e+06  2.2695794606310604e+06  -4.7399694988793284e+06  5.4357964801622937e+06  -6.0869264066940080e+06  5.1657624717465118e+06  -5.5358321789343217e+06  6.5270588145316448e+06  -7.5478134193550134e+06  5.6601242990850825e+06  -6.0419631141403615e+06  2.8127615304294284e+06  -4.2049508238765327e+06  3.3891805265669008e+06  -9.6634055557093825e+06  5.3986303832037039e+06  -1.0235853209377775e+07  3.1981344319137307e+06  -1.1057281600089287e+07  1.5351896568533427e+06  -9.1256870056169145e+06  -3.7060120218237299e+06  -5.5793332628641510e+06  -1.1670568425760167e+07  5.2997053480841387e+04  2.9321275617297493e+00  0.0000000000000000e+00  1.6488239780149100e+07  -1.1917992012047336e+07  1.2377862396560673e+07  -6.6970049010333363e+06  8.2474619011159027e+06  -4.9710418952934667e+06  7.5254460266951621e+06  -6.1873509040233120e+06  5.9302880004170286e+06  -5.5358321852215100e+06  7.3278596375114918e+06  -7.9369875602710247e+06  7.0464144620115925e+06  -5.6406138872238602e+06  6.6631716556299124e+06  -5.2504502180487020e+06  7.7348082561208364e+06  -8.3449776827513995e+06  1.3923246471162125e+07  -9.6638123079965319e+06  1.3315170737161590e+07  -7.2773637252834188e+06  1.3927530065396786e+07  -5.6953652912044879e+06  1.3987967445987942e+07  -5.5532559902719678e+06  1.7712146421535674e+07  -1.1989373938528579e+07  2.1446276349414844e+07  2.3882362248261395e+00  0.0000000000000000e+00  1.7656265726706560e+06  -8.6552796667685825e+06  -2.0054643598591574e+06  -1.3791144658071746e+06  -3.4921549800394163e+06  2.1078971005940042e+06  -6.0384286813844675e+06  4.2186538142939573e+06  -5.6289326658963179e+06  6.5270588500238257e+06  -7.9369875896957517e+06  6.2605523395793932e+06  -4.9275240485284580e+06  5.5362064670965765e+06  -6.5949379414018989e+06  4.7367589768115729e+06  -6.1810977248104047e+06  5.7308732684510071e+06  -8.3455698127239551e+06  3.3896937236039424e+06  -6.5772562542970292e+06  1.7844771345580507e+06  -6.9602774865471926e+06  -1.1445904160119898e+06  -5.3778903888164358e+06  -3.6846898437779313e+06  -4.2667152192995204e+06  -1.0540025199701352e+07  -7.7010542060942191e+05  1.9237688932508872e+00  -2.9804844135447881e-06  1.7252088323166680e+07  -1.2104817497131679e+07  1.3793106462722139e+07  -6.3954204916975526e+06  1.0300324679043733e+07  -6.7505780941908862e+06  9.2188114156465586e+06  -5.8677622770286296e+06  7.9743756271794671e+06  -7.5478134678582475e+06  7.0464145089706816e+06  -4.9275240590194128e+06  6.3065483544336371e+06  -8.2818022232517321e+06  7.1392841336585898e+06  -4.2920957749985736e+06  6.0834806133757131e+06  -6.1818906012590108e+06  7.7355183757843953e+06  -4.2050325366730113e+06  8.4831102244740892e+06  -5.5791232328107990e+06  1.0745595390010091e+07  -5.2480641498889262e+06  1.3323689485613447e+07  -7.4748656550149918e+06  1.7175794212273240e+07  -1.1579497692050522e+07  1.9389842948858041e+07  1.5305889130201888e+00  0.0000000000000000e+00  -6.6256736304919948e+04  -9.1009610099609271e+06  -1.6584796087748054e+06  -2.4459888104782240e+06  -4.9554718696999541e+06  1.9994786105039613e+06  -5.8244924576322427e+06  3.4087057130664941e+06  -7.0962332769572567e+06  5.6601244040353261e+06  -5.6406139672462838e+06  5.5362065087786410e+06  -8.2818022769531151e+06  7.1154426805656599e+06  -2.5995742551221652e+06  8.0379106061412592e+05  -4.2930662976976447e+06  4.7376621263776598e+06  -5.2505439293043353e+06  2.8122533706766078e+06  -6.4881731484303828e+06  2.8892207841706290e+06  -5.9033860610902281e+06  2.6568765167771897e+05  -5.8398224008245626e+06  -2.1547267918691216e+06  -2.9551641184208016e+06  -9.9697347120228708e+06  -7.0721211614947475e+05  1.2009994492845044e+00  -7.4976577064942699e-09  1.8124751487061579e+07  -1.1365323096452866e+07  1.5036894458440993e+07  -7.4091066391431689e+06  1.2982400562286753e+07  -6.8233824836629303e+06  9.9780350060888492e+06  -6.4834903195802355e+06  9.5055218220125474e+06  -6.0419631833312530e+06  6.6631717577820588e+06  -6.5949380587125998e+06  7.1392842876866236e+06  -2.5995743199500660e+06  -2.7110686681694956e+05  -2.6006497909442526e+06  7.1403311474152058e+06  -6.5950375917784153e+06  6.6625061887100162e+06  -6.0413601249504192e+06  9.5054555691625047e+06  -6.4837672160631986e+06  9.9782535650733784e+06  -6.8233928079202352e+06  1.2982313793579016e+07  -7.4090542488015350e+06  1.5036899483629018e+07  -1.1365341944814477e+07  1.8124757804670792e+07  9.2774348632855286e-01  0.0000000000000000e+00  -7.0720386514399352e+05  -9.9697371387567464e+06  -2.9551919956475068e+06  -2.1546777154758456e+06  -5.8398127045560265e+06  2.6554647884329839e+05  -5.9032054076616019e+06  2.8892780835663681e+06  -6.4886228349357676e+06  2.8127617347257896e+06  -5.2504504831288941e+06  4.7367592155294111e+06  -4.2920959630250111e+06  8.0379106056690577e+05  -2.6006497260922659e+06  7.1165431581141409e+06  -8.2819043175879018e+06  5.5354210587831764e+06  -5.6398782348869601e+06  5.6600550343546076e+06  -7.0966210282654101e+06  3.4090155724575068e+06  -5.8245011888957489e+06  1.9993383312729851e+06  -4.9553864664925477e+06  -2.4459781648849426e+06  -1.6585185815595216e+06  -9.1009453431196455e+06  -6.6254588518282733e+04  7.0400382757131241e-01  0.0000000000000000e+00  1.9389842683537357e+07  -1.1579512118513962e+07  1.7175819928462226e+07  -7.4748597282563243e+06  1.3323605659091614e+07  -5.2479565370350415e+06  1.0745639849088097e+07  -5.5794315800741389e+06  8.4834633326611463e+06  -4.2049509513264066e+06  7.7348084697704492e+06  -6.1810978345040679e+06  6.0834806132839397e+06  -4.2930661095523126e+06  7.1403309934053449e+06  -8.2819042638905160e+06  6.3057177333641481e+06  -4.9267099992782837e+06  7.0463459812766695e+06  -7.5483011605843203e+06  7.9747747174757486e+06  -5.8677634939933186e+06  9.2186040134857334e+06  -6.7504490200635307e+06  1.0300343966707373e+07  -6.3954863936395627e+06  1.3793134249186419e+07  -1.2104808169438414e+07  1.7252077973511666e+07  5.2340307967367572e-01  0.0000000000000000e+00  -7.7010922939190455e+05  -1.0540013918967566e+07  -4.2667105528180189e+06  -3.6847362463626117e+06  -5.3778295645565121e+06  -1.1445596868434071e+06  -6.9604720305074761e+06  1.7847023190372535e+06  -6.5771894230009243e+06  3.3891807056021634e+06  -8.3449778962664148e+06  5.7308732683957573e+06  -6.1818904913902180e+06  4.7376618875077907e+06  -6.5950374745381083e+06  5.5354210170754455e+06  -4.9267099887890490e+06  6.2604847859922303e+06  -7.9375360166020859e+06  6.5275241324854186e+06  -5.6289244737191889e+06  4.2183773364417860e+06  -6.0382539067063937e+06  2.1079296357430173e+06  -3.4922584640860418e+06  -1.3790699043905349e+06  -2.0054467610419488e+06  -8.6553043003647011e+06  1.7656315310832637e+06  3.8000373200017534e-01  -8.2298557378547960e-09  2.1446280587329675e+07  -1.1989372453216679e+07  1.7712122979837384e+07  -5.5532250276270201e+06  1.3987986776117599e+07  -5.6954806911975993e+06  1.3927663328477623e+07  -7.2773140504384749e+06  1.3314826632200632e+07  -9.6634054828922488e+06  1.3923246471012808e+07  -8.3455695991521440e+06  7.7355181620548526e+06  -5.2505436640340947e+06  6.6625060867127515e+06  -5.6398781547895763e+06  7.0463459343546098e+06  -7.9375359871725766e+06  7.3283494360650508e+06  -5.5358166385002565e+06  5.9299581697702175e+06  -6.1871360653551128e+06  7.5254940002774475e+06  -4.9711864574969439e+06  8.2475250723673683e+06  -6.6969735408121608e+06  1.2377817889127029e+07  -1.1917980106947551e+07  1.6488246532369629e+07  2.6830799769553276e-01  0.0000000000000000e+00  5.2999778025926389e+04  -1.1670579578446638e+07  -5.5793170704093557e+06  -3.7060012482793573e+06  -9.1257497621047720e+06  1.5352631960644864e+06  -1.1057245934734393e+07  3.1979178233208447e+06  -1.0235591553051600e+07  5.3986303826399110e+06  -9.6638123801639285e+06  3.3896935445461604e+06  -4.2050324093219107e+06  2.8122531660892768e+06  -6.0413600560309431e+06  5.6600549292325852e+06  -7.5483011121709077e+06  6.5275240969507881e+06  -5.5358166322157206e+06  5.1654124587619295e+06  -6.0866886581203807e+06  5.4358576900830055e+06  -4.7401519572166791e+06  2.2696605916436687e+06  -4.2534400006369501e+06  6.6016947076483734e+05  -1.7481941352149406e+06  -9.3818906716080867e+06  4.2283309471970834e+06  1.8325797260810930e-01  0.0000000000000000e+00  2.5300667312400006e+07  -1.4062128851416713e+07  2.1069553479304146e+07  -9.7693607473071888e+06  2.3141308420944661e+07  -1.3606989554715380e+07  2.3424114151915308e+07  -1.3150734072386658e+07  1.9075935191849440e+07  -1.0235853008122697e+07  1.3315170645337623e+07  -6.5772558980473140e+06  8.4831099943081755e+06  -6.4881728378058271e+06  9.5054554316777792e+06  -7.0966208628214290e+06  7.9747746622580532e+06  -5.6289244183914596e+06  5.9299581514596129e+06  -6.0866886417018473e+06  6.1536163729520012e+06  -4.9387153468796760e+06  4.7924926276207110e+06  -4.7500172419452770e+06  7.4657437165251682e+06  -5.4291183975743446e+06  8.5007056528002806e+06  -1.1262405589456122e+07  1.6986330331870887e+07  1.2023614673225953e-01  0.0000000000000000e+00  -6.3550201046354533e+05  -9.1886107591154873e+06  -1.2522482853900995e+07  1.1725723645585196e+06  -1.5503016887540316e+07  3.2146321775272796e+06  -1.4327398165097127e+07  4.4485429579142146e+06  -1.3150891909436977e+07  3.1981343120283512e+06  -7.2773637081686864e+06  1.7844768110524919e+06  -5.5791230951886270e+06  2.8892205440055244e+06  -6.4837671732543884e+06  3.4090154636889757e+06  -5.8677634925164329e+06  4.2183772796899239e+06  -6.1871360497611081e+06  5.4358576624185434e+06  -4.9387153417912014e+06  4.0979432126719942e+06  -4.5053062422311855e+06  4.4230549661448281e+06  -4.4295855528856814e+06  6.6187246532303817e+05  -2.0553780810208612e+06  -8.5667033115450889e+06  6.7369169314428717e+06  7.5062465580281582e-02  -2.2058050483544975e-08  3.8067167123717502e+07  -2.4330134852758672e+07  3.4267778832477644e+07  -2.3849067773304142e+07  3.7837659836442307e+07  -2.0460280563313290e+07  2.8820817743610997e+07  -1.4327489538239546e+07  2.3424243294064909e+07  -1.1057281167634424e+07  1.3927529842798997e+07  -6.9602769913421925e+06  1.0745595186401356e+07  -5.9033857424342632e+06  9.9782534758478105e+06  -5.8245009944673739e+06  9.2186039531479217e+06  -6.0382537796960203e+06  7.5254939654274806e+06  -4.7401519085938660e+06  4.7924926203527814e+06  -4.5053062323788144e+06  5.1229158887620140e+06  -4.6962750533055868e+06  4.3266464854412563e+06  -3.1162994632107811e+06  4.6026927520411704e+06  -1.0713759866885794e+07  1.8394714171546310e+07  4.4000239223206984e-02  0.0000000000000000e+00  -8.0962712139908494e+06  -2.6457292735189870e+06  -2.1770583914345820e+07  4.3380589620655412e+06  -2.2650829715319984e+07  7.6184441074359771e+06  -2.0460330568011817e+07  3.2147058333708867e+06  -1.3607012470787259e+07  1.5351893299553872e+06  -5.6953652502183476e+06  -1.1445907700984753e+06  -5.2480641174937580e+06  2.6568741898614302e+05  -6.8233928076154962e+06  1.9993381710624653e+06  -6.7504490289671849e+06  2.1079295498618004e+06  -4.9711864849337684e+06  2.2696605557858334e+06  -4.7500172469472680e+06  4.4230549428645326e+06  -4.6962750474752365e+06  3.5559106985850991e+06  -2.6295850423617810e+06  1.0569753396184170e+06  -5.6346649076100821e+06  -5.3908436536981929e+06  1.0413659358209668e+07  2.3750233250010935e-02  0.0000000000000000e+00  6.8041176905278280e+07  -3.9413099193813182e+07  5.2070921339575574e+07  -3.5208112457612216e+07  4.3912289822340176e+07  -2.2650856703894671e+07  3.7837700176618762e+07  -1.5503031902797958e+07  2.3141270208577678e+07  -9.1256863800573219e+06  1.3987967247396609e+07  -5.3778898524518032e+06  1.3323689341406245e+07  -5.8398220140324151e+06  1.2982313712296920e+07  -4.9553862106714593e+06  1.0300343944603939e+07  -3.4922583115984392e+06  8.2475250628015846e+06  -4.2534398922560718e+06  7.4657436929859892e+06  -4.4295854982031845e+06  4.3266464802948926e+06  -2.6295850367806791e+06  2.1501257796715116e+06  -5.1571323895316748e+06  8.2268726487546798e+05  -5.9555304353032429e+06  1.9666639764373820e+07  1.1453623288006816e-02  0.0000000000000000e+00  -2.2313375294274058e+07  1.9323615680820679e+06  -3.5883262495697297e+07  1.3329803381227607e+07  -3.5208125589367680e+07  4.3380801972266352e+06  