<?xml version="1.0"?>
<VTKFile type="UnstructuredGrid"  version="0.1"  >
<UnstructuredGrid>
<Piece  NumberOfPoints="961" NumberOfCells="1800">
<Points>
<DataArray  type="Float64"  NumberOfComponents="3"  format="ascii">-1 -1 0  -0.9333333333333333 -1 0  -0.8666666666666667 -1 0  -0.8 -1 0  -0.7333333333333334 -1 0  -0.6666666666666667 -1 0  -0.6 -1 0  -0.5333333333333333 -1 0  -0.4666666666666667 -1 0  -0.4 -1 0  -0.3333333333333334 -1 0  -0.2666666666666667 -1 0  -0.2 -1 0  -0.1333333333333333 -1 0  -0.06666666666666665 -1 0  0 -1 0  0.06666666666666665 -1 0  0.1333333333333333 -1 0  0.2 -1 0  0.2666666666666666 -1 0  0.3333333333333333 -1 0  0.3999999999999999 -1 0  0.4666666666666666 -1 0  0.5333333333333334 -1 0  0.6000000000000001 -1 0  0.6666666666666667 -1 0  0.7333333333333334 -1 0  0.8 -1 0  0.8666666666666667 -1 0  0.9333333333333333 -1 0  1 -1 0  -1 -0.9333333333333333 0  -0.9333333333333333 -0.9333333333333333 0  -0.8666666666666667 -0.9333333333333333 0  -0.8 -0.9333333333333333 0  -0.7333333333333334 -0.9333333333333333 0  -0.6666666666666667 -0.9333333333333333 0  -0.6 -0.9333333333333333 0  -0.5333333333333333 -0.9333333333333333 0  -0.4666666666666667 -0.9333333333333333 0  -0.4 -0.9333333333333333 0  -0.3333333333333334 -0.9333333333333333 0  -0.2666666666666667 -0.9333333333333333 0  -0.2 -0.9333333333333333 0  -0.1333333333333333 -0.9333333333333333 0  -0.06666666666666665 -0.9333333333333333 0  0 -0.9333333333333333 0  0.06666666666666665 -0.9333333333333333 0  0.1333333333333333 -0.9333333333333333 0  0.2 -0.9333333333333333 0  0.2666666666666666 -0.9333333333333333 0  0.3333333333333333 -0.9333333333333333 0  0.3999999999999999 -0.9333333333333333 0  0.4666666666666666 -0.9333333333333333 0  0.5333333333333334 -0.9333333333333333 0  0.6000000000000001 -0.9333333333333333 0  0.6666666666666667 -0.9333333333333333 0  0.7333333333333334 -0.9333333333333333 0  0.8 -0.9333333333333333 0  0.8666666666666667 -0.9333333333333333 0  0.9333333333333333 -0.9333333333333333 0  1 -0.9333333333333333 0  -1 -0.8666666666666667 0  -0.9333333333333333 -0.8666666666666667 0  -0.8666666666666667 -0.8666666666666667 0  -0.8 -0.8666666666666667 0  -0.7333333333333334 -0.8666666666666667 0  -0.6666666666666667 -0.8666666666666667 0  -0.6 -0.8666666666666667 0  -0.5333333333333333 -0.8666666666666667 0  -0.4666666666666667 -0.8666666666666667 0  -0.4 -0.8666666666666667 0  -0.3333333333333334 -0.8666666666666667 0  -0.2666666666666667 -0.8666666666666667 0  -0.2 -0.8666666666666667 0  -0.1333333333333333 -0.8666666666666667 0  -0.06666666666666665 -0.8666666666666667 0  0 -0.8666666666666667 0  0.06666666666666665 -0.8666666666666667 0  0.1333333333333333 -0.8666666666666667 0  0.2 -0.8666666666666667 0  0.2666666666666666 -0.8666666666666667 0  0.3333333333333333 -0.8666666666666667 0  0.3999999999999999 -0.8666666666666667 0  0.4666666666666666 -0.8666666666666667 0  0.5333333333333334 -0.8666666666666667 0  0.6000000000000001 -0.8666666666666667 0  0.6666666666666667 -0.8666666666666667 0  0.7333333333333334 -0.8666666666666667 0  0.8 -0.8666666666666667 0  0.8666666666666667 -0.8666666666666667 0  0.9333333333333333 -0.8666666666666667 0  1 -0.8666666666666667 0  -1 -0.8 0  -0.9333333333333333 -0.8 0  -0.8666666666666667 -0.8 0  -0.8 -0.8 0  -0.7333333333333334 -0.8 0  -0.6666666666666667 -0.8 0  -0.6 -0.8 0  -0.5333333333333333 -0.8 0  -0.4666666666666667 -0.8 0  -0.4 -0.8 0  -0.3333333333333334 -0.8 0  -0.2666666666666667 -0.8 0  -0.2 -0.8 0  -0.1333333333333333 -0.8 0  -0.06666666666666665 -0.8 0  0 -0.8 0  0.06666666666666665 -0.8 0  0.1333333333333333 -0.8 0  0.2 -0.8 0  0.2666666666666666 -0.8 0  0.3333333333333333 -0.8 0  0.3999999999999999 -0.8 0  0.4666666666666666 -0.8 0  0.5333333333333334 -0.8 0  0.6000000000000001 -0.8 0  0.6666666666666667 -0.8 0  0.7333333333333334 -0.8 0  0.8 -0.8 0  0.8666666666666667 -0.8 0  0.9333333333333333 -0.8 0  1 -0.8 0  -1 -0.7333333333333334 0  -0.9333333333333333 -0.7333333333333334 0  -0.8666666666666667 -0.7333333333333334 0  -0.8 -0.7333333333333334 0  -0.7333333333333334 -0.7333333333333334 0  -0.6666666666666667 -0.7333333333333334 0  -0.6 -0.7333333333333334 0  -0.5333333333333333 -0.7333333333333334 0  -0.4666666666666667 -0.7333333333333334 0  -0.4 -0.7333333333333334 0  -0.3333333333333334 -0.7333333333333334 0  -0.2666666666666667 -0.7333333333333334 0  -0.2 -0.7333333333333334 0  -0.1333333333333333 -0.7333333333333334 0  -0.06666666666666665 -0.7333333333333334 0  0 -0.7333333333333334 0  0.06666666666666665 -0.7333333333333334 0  0.1333333333333333 -0.7333333333333334 0  0.2 -0.7333333333333334 0  0.2666666666666666 -0.7333333333333334 0  0.3333333333333333 -0.7333333333333334 0  0.3999999999999999 -0.7333333333333334 0  0.4666666666666666 -0.7333333333333334 0  0.5333333333333334 -0.7333333333333334 0  0.6000000000000001 -0.7333333333333334 0  0.6666666666666667 -0.7333333333333334 0  0.7333333333333334 -0.7333333333333334 0  0.8 -0.7333333333333334 0  0.8666666666666667 -0.7333333333333334 0  0.9333333333333333 -0.7333333333333334 0  1 -0.7333333333333334 0  -1 -0.6666666666666667 0  -0.9333333333333333 -0.6666666666666667 0  -0.8666666666666667 -0.6666666666666667 0  -0.8 -0.6666666666666667 0  -0.7333333333333334 -0.6666666666666667 0  -0.6666666666666667 -0.6666666666666667 0  -0.6 -0.6666666666666667 0  -0.5333333333333333 -0.6666666666666667 0  -0.4666666666666667 -0.6666666666666667 0  -0.4 -0.6666666666666667 0  -0.3333333333333334 -0.6666666666666667 0  -0.2666666666666667 -0.6666666666666667 0  -0.2 -0.6666666666666667 0  -0.1333333333333333 -0.6666666666666667 0  -0.06666666666666665 -0.6666666666666667 0  0 -0.6666666666666667 0  0.06666666666666665 -0.6666666666666667 0  0.1333333333333333 -0.6666666666666667 0  0.2 -0.6666666666666667 0  0.2666666666666666 -0.6666666666666667 0  0.3333333333333333 -0.6666666666666667 0  0.3999999999999999 -0.6666666666666667 0  0.4666666666666666 -0.6666666666666667 0  0.5333333333333334 -0.6666666666666667 0  0.6000000000000001 -0.6666666666666667 0  0.6666666666666667 -0.6666666666666667 0  0.7333333333333334 -0.6666666666666667 0  0.8 -0.6666666666666667 0  0.8666666666666667 -0.6666666666666667 0  0.9333333333333333 -0.6666666666666667 0  1 -0.6666666666666667 0  -1 -0.6 0  -0.9333333333333333 -0.6 0  -0.8666666666666667 -0.6 0  -0.8 -0.6 0  -0.7333333333333334 -0.6 0  -0.6666666666666667 -0.6 0  -0.6 -0.6 0  -0.5333333333333333 -0.6 0  -0.4666666666666667 -0.6 0  -0.4 -0.6 0  -0.3333333333333334 -0.6 0  -0.2666666666666667 -0.6 0  -0.2 -0.6 0  -0.1333333333333333 -0.6 0  -0.06666666666666665 -0.6 0  0 -0.6 0  0.06666666666666665 -0.6 0  0.1333333333333333 -0.6 0  0.2 -0.6 0  0.2666666666666666 -0.6 0  0.3333333333333333 -0.6 0  0.3999999999999999 -0.6 0  0.4666666666666666 -0.6 0  0.5333333333333334 -0.6 0  0.6000000000000001 -0.6 0  0.6666666666666667 -0.6 0  0.7333333333333334 -0.6 0  0.8 -0.6 0  0.8666666666666667 -0.6 0  0.9333333333333333 -0.6 0  1 -0.6 0  -1 -0.5333333333333333 0  -0.9333333333333333 -0.5333333333333333 0  -0.8666666666666667 -0.5333333333333333 0  -0.8 -0.5333333333333333 0  -0.7333333333333334 -0.5333333333333333 0  -0.6666666666666667 -0.5333333333333333 0  -0.6 -0.5333333333333333 0  -0.5333333333333333 -0.5333333333333333 0  -0.4666666666666667 -0.5333333333333333 0  -0.4 -0.5333333333333333 0  -0.3333333333333334 -0.5333333333333333 0  -0.2666666666666667 -0.5333333333333333 0  -0.2 -0.5333333333333333 0  -0.1333333333333333 -0.5333333333333333 0  -0.06666666666666665 -0.5333333333333333 0  0 -0.5333333333333333 0  0.06666666666666665 -0.5333333333333333 0  0.1333333333333333 -0.5333333333333333 0  0.2 -0.5333333333333333 0  0.2666666666666666 -0.5333333333333333 0  0.3333333333333333 -0.5333333333333333 0  0.3999999999999999 -0.5333333333333333 0  0.4666666666666666 -0.5333333333333333 0  0.5333333333333334 -0.5333333333333333 0  0.6000000000000001 -0.5333333333333333 0  0.6666666666666667 -0.5333333333333333 0  0.7333333333333334 -0.5333333333333333 0  0.8 -0.5333333333333333 0  0.8666666666666667 -0.5333333333333333 0  0.9333333333333333 -0.5333333333333333 0  1 -0.5333333333333333 0  -1 -0.4666666666666667 0  -0.9333333333333333 -0.4666666666666667 0  -0.8666666666666667 -0.4666666666666667 0  -0.8 -0.4666666666666667 0  -0.7333333333333334 -0.4666666666666667 0  -0.6666666666666667 -0.4666666666666667 0  -0.6 -0.4666666666666667 0  -0.5333333333333333 -0.4666666666666667 0  -0.4666666666666667 -0.4666666666666667 0  -0.4 -0.4666666666666667 0  -0.3333333333333334 -0.4666666666666667 0  -0.2666666666666667 -0.4666666666666667 0  -0.2 -0.4666666666666667 0  -0.1333333333333333 -0.4666666666666667 0  -0.06666666666666665 -0.4666666666666667 0  0 -0.4666666666666667 0  0.06666666666666665 -0.4666666666666667 0  0.1333333333333333 -0.4666666666666667 0  0.2 -0.4666666666666667 0  0.2666666666666666 -0.4666666666666667 0  0.3333333333333333 -0.4666666666666667 0  0.3999999999999999 -0.4666666666666667 0  0.4666666666666666 -0.4666666666666667 0  0.5333333333333334 -0.4666666666666667 0  0.6000000000000001 -0.4666666666666667 0  0.6666666666666667 -0.4666666666666667 0  0.7333333333333334 -0.4666666666666667 0  0.8 -0.4666666666666667 0  0.8666666666666667 -0.4666666666666667 0  0.9333333333333333 -0.4666666666666667 0  1 -0.4666666666666667 0  -1 -0.4 0  -0.9333333333333333 -0.4 0  -0.8666666666666667 -0.4 0  -0.8 -0.4 0  -0.7333333333333334 -0.4 0  -0.6666666666666667 -0.4 0  -0.6 -0.4 0  -0.5333333333333333 -0.4 0  -0.4666666666666667 -0.4 0  -0.4 -0.4 0  -0.3333333333333334 -0.4 0  -0.2666666666666667 -0.4 0  -0.2 -0.4 0  -0.1333333333333333 -0.4 0  -0.06666666666666665 -0.4 0  0 -0.4 0  0.06666666666666665 -0.4 0  0.1333333333333333 -0.4 0  0.2 -0.4 0  0.2666666666666666 -0.4 0  0.3333333333333333 -0.4 0  0.3999999999999999 -0.4 0  0.4666666666666666 -0.4 0  0.5333333333333334 -0.4 0  0.6000000000000001 -0.4 0  0.6666666666666667 -0.4 0  0.7333333333333334 -0.4 0 
[...]
<PointData  Scalars="f_24"> 
<DataArray  type="Float64"  Name="f_24"  format="ascii">0.0000000000000000e+00  0.0000000000000000e+00  0.0000000000000000e+00  0.0000000000000000e+00  0.0000000000000000e+00  0.0000000000000000e+00  0.0000000000000000e+00  0.0000000000000000e+00  0.0000000000000000e+00  0.0000000000000000e+00  0.0000000000000000e+00  0.0000000000000000e+00  0.0000000000000000e+00  0.0000000000000000e+00  0.0000000000000000e+00  0.0000000000000000e+00  0.0000000000000000e+00  0.0000000000000000e+00  0.0000000000000000e+00  0.0000000000000000e+00  0.0000000000000000e+00  0.0000000000000000e+00  0.0000000000000000e+00  0.0000000000000000e+00  0.0000000000000000e+00  -4.6590887285331385e-09  0.0000000000000000e+00  1.2237481136930751e-07  0.0000000000000000e+00  0.0000000000000000e+00  1.4119950441353526e+01  0.0000000000000000e+00  1.2754717314694203e+07  1.3823265773493810e+07  2.0124802292976093e+07  1.4302331999564024e+07  1.9683783855063889e+07  1.0941555542818381e+07  1.8582859651334055e+07  7.5044349413541257e+06  1.7273747269256011e+07  5.1259649287377447e+06  1.6797366966129933e+07  2.7735660142757134e+06  1.7515128512208983e+07  1.0232468683670982e+06  1.8342428837652657e+07  4.1570692345496529e+05  1.9551810819785330e+07  3.6602663248954579e+05  2.1516907693197846e+07  1.1554460343417306e+06  2.5179337866160695e+07  4.7877383999284398e+05  3.7279134358726844e+07  -6.7043036672003968e+06  6.5667386541394509e+07  -2.0419858752892435e+07  1.0936163962742911e+08  -1.2527330814350778e+07  2.3854315186602724e+08  1.2329348972976497e+01  0.0000000000000000e+00  1.3823265750966959e+07  1.5017935979341393e+07  5.6285421094956743e+06  2.1041224265037854e+06  -4.8638067481029574e+06  -4.4935705184129365e+06  -9.7430544442168530e+06  -7.8698716735089328e+06  -1.0588842770553395e+07  -8.9244030931972284e+06  -1.1439978300648618e+07  -8.4103733326593116e+06  -1.1747005492788084e+07  -8.9204396820737161e+06  -1.1086655367568467e+07  -9.7514134628109410e+06  -1.1252514930845575e+07  -1.0214287507824088e+07  -1.1515443415732287e+07  -1.1112531877958193e+07  -1.3257405245303575e+07  -8.4663418020121101e+06  -2.2699587015330646e+07  -1.8881335507664599e+06  -3.6708826627671346e+07  2.7367910044002095e+06  -3.1753882272357959e+07  -1.9667916918339502e+07  -1.2527339702266023e+07  1.0714706489850569e+01  -3.4006360271035674e-09  2.0124802282925423e+07  5.6285421132213268e+06  1.5747261487457876e+06  -5.5712889837460238e+06  1.0267369671610261e+06  -5.4026900113125956e+06  4.1389904118469311e+06  -2.3323539532051967e+06  7.6485075659398800e+06  -2.1399455916713127e+06  1.1306634582019817e+07  -2.3793018274235576e+06  1.2676255674089516e+07  -2.0247373974321154e+06  1.3877059785368891e+07  -3.2527535567606613e+06  1.5905446264350876e+07  -4.5157545177198891e+06  1.6399503570040647e+07  -5.7669721533814734e+06  1.9626969209272839e+07  -1.2275585516829386e+07  3.2383605317950781e+07  -2.0740234498884920e+07  4.9801788687037610e+07  -3.3577277186790042e+07  5.9490186425575949e+07  -3.1753881660938341e+07  1.0936164135438365e+08  9.2640994504673611e+00  0.0000000000000000e+00  1.4302331929695375e+07  2.1041224477652214e+06  -5.5712889903282076e+06  2.4252221912695229e+05  -5.1452640759841772e+06  5.9278405037617986e+05  -3.4295976276327455e+06  2.0145307334528246e+05  -5.5329916801910885e+06  3.3644822817142110e+05  -6.6060102269644281e+06  -1.4956762096586309e+06  -6.2389516848050291e+06  -2.4618873930413174e+06  -7.1794744496107036e+06  -2.1872415810351069e+06  -7.2666989271363989e+06  -3.6950269491396435e+06  -5.5155310384270959e+06  -3.8201554477819866e+06  -9.6524561489202026e+06  6.9593497062906425e+05  -2.3135986678871632e+07  3.7301542446597712e+06  -3.3713321001368828e+07  1.2802004323950974e+07  -3.3577286537593454e+07  2.7367973157794485e+06  -2.0419866193515517e+07  7.9660228060345295e+00  -1.0290265737229834e-08  1.9683783834638767e+07  -4.8638067074336344e+06  1.0267369742070996e+06  -5.1452640800157562e+06  1.6138802941796542e+06  -2.9299969115035655e+06  3.7984658299881183e+06  -4.4217683065883564e+06  6.9967579222264020e+06  -4.0993974673970570e+06  7.8388639584479975e+06  -3.3202979932220555e+06  9.8203152566496972e+06  -4.7007074680248452e+06  1.2376772667871989e+07  -5.5424724834814947e+06  1.2696415699608235e+07  -5.1158857169510312e+06  1.3300124288733453e+07  -8.7403433906547073e+06  2.1909255733939517e+07  -1.4964348049577003e+07  3.5690741453130215e+07  -2.1966958084139649e+07  4.1377782851533495e+07  -3.3713332297376864e+07  4.9801799327254526e+07  -3.6708827778915420e+07  6.5667385952129759e+07  6.8093896804366940e+00  0.0000000000000000e+00  1.0941555441271862e+07  -4.4935704573332090e+06  -5.4026900688266829e+06  5.9278406324109738e+05  -2.9299969167511277e+06  3.0992804002454504e+06  -4.6141527839108594e+06  4.1608987066762955e+06  -4.5302565564954923e+06  2.1680523668928817e+06  -4.7260693118471969e+06  2.0105202250597498e+06  -6.4258698119377121e+06  1.9002327305168600e+06  -6.4974079330565184e+06  2.4764962685227554e+05  -4.9964163838758282e+06  -1.0916006831569590e+06  -5.4154960709737921e+06  1.4634797875213288e+06  -1.2954072098871559e+07  3.0017832156662168e+06  -1.9617055622409780e+07  6.9524537648351761e+06  -2.1966985148228765e+07  3.7301751570141586e+06  -2.0740242463554282e+07  -1.8881344532886609e+06  -6.7043061989067309e+06  5.7835317007784051e+00  4.9905701672687536e-09  1.8582859639913242e+07  -9.7430543838153277e+06  4.1389904061520891e+06  -3.4295976044770628e+06  3.7984658350295173e+06  -4.6141527895296058e+06  4.8461630945970556e+06  -4.2822913628318645e+06  4.5766098428458115e+06  -4.5032835240498511e+06  7.1704416616559066e+06  -5.7437588972011777e+06  8.7804355737125706e+06  -5.5390195290509937e+06  9.5041914866344016e+06  -5.6126688962147357e+06  1.0236296061554804e+07  -6.6192538064582217e+06  1.3262704958543396e+07  -1.0520743645695468e+07  2.2303232825302105e+07  -1.3628959878305059e+07  2.7399984495715804e+07  -1.9617102634997297e+07  3.5690780201102369e+07  -2.3135994480160974e+07  3.2383598419516336e+07  -2.2699579547932461e+07  3.7279133156175144e+07  4.8781988289614953e+00  0.0000000000000000e+00  7.5044348073782828e+06  -7.8698715869323602e+06  -2.3323540477105896e+06  2.0145310761828601e+05  -4.4217683582956111e+06  4.1608987287267670e+06  -4.2822913721307125e+06  3.9114994186773757e+06  -4.6989220964411562e+06  5.1735278893349096e+06  -5.8939146812018231e+06  4.0120759134685844e+06  -5.5898300157814659e+06  3.2391929515654473e+06  -6.1763930631806143e+06  2.7429429381880737e+06  -5.3160855658088392e+06  1.6927173761595997e+06  -6.9247984577060249e+06  3.0435167421721723e+06  -1.2512288534702884e+07  4.2321854300198033e+06  -1.3629047497353623e+07  3.0018536674461854e+06  -1.4964363625631329e+07  6.9591838638826169e+05  -1.2275572876423893e+07  -8.4663432225304078e+06  4.7876870213989564e+05  4.0835593957897682e+00  1.9463624146882604e-08  1.7273747269147865e+07  -1.0588842682088729e+07  7.6485075461301906e+06  -5.5329916472170940e+06  6.9967579452367760e+06  -4.5302565519942930e+06  4.5766098498734925e+06  -4.6989221013582246e+06  5.8593030646668682e+06  -5.7947875227265526e+06  5.6469452702751821e+06  -5.3554902208517063e+06  7.5936089281594530e+06  -6.7502969463696107e+06  9.0524342800448500e+06  -6.1708458670005109e+06  8.0800122945895744e+06  -6.2588891370633896e+06  1.2671014972420057e+07  -9.7432541527716722e+06  1.8161479004448194e+07  -1.2512438317716436e+07  2.2303355849423505e+07  -1.2954093703671334e+07  2.1909219734306715e+07  -9.6524243141741082e+06  1.9626963920847539e+07  -1.3257410352878524e+07  2.5179341234743383e+07  3.3902001838394296e+00  0.0000000000000000e+00  5.1259647684213752e+06  -8.9244029890869670e+06  -2.1399457457019100e+06  3.3644831545517617e+05  -4.0993975694977022e+06  2.1680524005606160e+06  -4.5032835700882943e+06  5.1735279155675601e+06  -5.7947875382783003e+06  4.9163782830429673e+06  -5.2701449688961087e+06  6.2110657913438762e+06  -7.1866047081454871e+06  5.3844854354636427e+06  -5.7545749942918960e+06  2.6725535718386406e+06  -4.0051728008598178e+06  3.2256699347384176e+06  -9.1938903047838081e+06  5.1337476605604608e+06  -9.7435032384694256e+06  3.0437229002935397e+06  -1.0520777983544186e+07  1.4634101472778944e+06  -8.7402842925314363e+06  -3.8201652909026174e+06  -5.7669883258166891e+06  -1.1112520795921732e+07  1.1554426546739873e+06  2.7891260131068707e+00  -1.1879459862461848e-08  1.6797366981818646e+07  -1.1439978205183012e+07  1.1306634583421672e+07  -6.6060101840709308e+06  7.8388639692195086e+06  -4.7260692865348589e+06  7.1704416952146599e+06  -5.8939146962546865e+06  5.6469452877900284e+06  -5.2701449749501524e+06  6.9763722011543214e+06  -7.5539494686801424e+06  6.7089074701882908e+06  -5.3664208276594449e+06  6.3450457460182942e+06  -4.9932831327445963e+06  7.3637847431404348e+06  -7.9448274419256346e+06  1.3251841835700752e+07  -9.1942772195235789e+06  1.2671342381674675e+07  -6.9248457252199864e+06  1.3262578405776687e+07  -5.4153863377465336e+06  1.3300106091363119e+07  -5.5155604408642277e+06  1.6399526030948760e+07  -1.1515444673558008e+07  2.1516903896174524e+07  2.2717605697131265e+00  0.0000000000000000e+00  2.7735658068208531e+06  -8.4103731870681643e+06  -2.3793020489296443e+06  -1.4956760974949228e+06  -3.3202981358566345e+06  2.0105203055756807e+06  -5.7437590174305467e+06  4.0120759671521964e+06  -5.3554902733154194e+06  6.2110658250759766e+06  -7.5539494966079360e+06  5.9576674255440999e+06  -4.6907648365911767e+06  5.2673285072018905e+06  -6.2793909064776720e+06  4.5050333688753461e+06  -5.8833626682874635e+06  5.4569725061005140e+06  -7.9453906934182998e+06  3.2261581029058807e+06  -6.2589530478369296e+06  1.6925034815696192e+06  -6.6190692209158810e+06  -1.0916295785587358e+06  -5.1159440808847193e+06  -3.6949824457337516e+06  -4.5157595489231516e+06  -1.0214297893020153e+07  3.6602972629884008e+05  1.8299455771994169e+00  -3.2414659167612732e-06  1.7515128563693121e+07  -1.1747005393762009e+07  1.2676255679370457e+07  -6.2389516092295367e+06  9.8203152811474465e+06  -6.4258698052248517e+06  8.7804356320699956e+06  -5.5898300177126098e+06  7.5936089809789248e+06  -7.1866047543826522e+06  6.7089075149139166e+06  -4.6907648466575164e+06  6.0041426975039328e+06  -7.8818260901873829e+06  6.7976543960766653e+06  -4.0824540373520488e+06  5.7890063850791231e+06  -5.8841168757837480e+06  7.3644602299683448e+06  -4.0052505285941716e+06  8.0796766271254905e+06  -5.3157923885976700e+06  1.0236253965997253e+07  -4.9965187820229940e+06  1.2696495580822634e+07  -7.2667045354391178e+06  1.5905421898604544e+07  -1.1252501066810751e+07  1.9551811209705107e+07  1.4559412108793679e+00  0.0000000000000000e+00  1.0232465915397153e+06  -8.9204395053568892e+06  -2.0247376737347455e+06  -2.4618872407196956e+06  -4.7007077069819057e+06  1.9002328806868810e+06  -5.5390197128172871e+06  3.2391930543546639e+06  -6.7502971033733496e+06  5.3844855352671100e+06  -5.3664209037290923e+06  5.2673285468327552e+06  -7.8818261411970463e+06  6.7705291035696343e+06  -2.4754056528805108e+06  7.6199335192330147e+05  -4.0833772270804010e+06  4.5058924713487457e+06  -4.9933722736510634e+06  2.6720701953273565e+06  -6.1704184069574131e+06  2.7428886608762410e+06  -5.6128410406034384e+06  2.4778413299232427e+05  -5.5424820689771706e+06  -2.1872880111090564e+06  -3.2527274353910959e+06  -9.7514109306579009e+06  4.1569870917261258e+05  1.1424260149685737e+00  0.0000000000000000e+00  1.8342428924887314e+07  -1.1086655237621119e+07  1.3877059805251027e+07  -7.1794743857890870e+06  1.2376772750638362e+07  -6.4974079361569481e+06  9.5041915730790421e+06  -6.1763931048120130e+06  9.0524344114114065e+06  -5.7545750602326533e+06  6.3450458432921655e+06  -6.2793910182024930e+06  6.7976545426799236e+06  -2.4754057146853581e+06  -2.5388238818173856e+05  -2.4764287343339152e+06  6.7986503464651220e+06  -6.2794856969821295e+06  6.3444127344075851e+06  -5.7540014133564308e+06  9.0523713897531629e+06  -6.1766564968989706e+06  9.5043994728164040e+06  -6.4974177568944972e+06  1.2376690213693636e+07  -7.1794245505528674e+06  1.3877064585358987e+07  -1.1086673166737830e+07  1.8342434934383448e+07  8.8249690258459534e-01  0.0000000000000000e+00  4.1570655777041911e+05  -9.7514132390381712e+06  -3.2527539530302375e+06  -2.1872413281998294e+06  -5.5424728456035890e+06  2.4764984523448200e+05  -5.6126691977454899e+06  2.7429431657468234e+06  -6.1708461619949890e+06  2.6725537661662800e+06  -4.9932833848948134e+06  4.5050335959828980e+06  -4.0824542161819180e+06  7.6199335188822530e+05  -2.4764286725232895e+06  6.7715759101974666e+06  -7.8819232052584710e+06  5.2665814036834836e+06  -5.3657210534660257e+06  5.3844195487900162e+06  -6.7506659438294871e+06  3.2394878017243687e+06  -5.5390280182516519e+06  1.9000994429574171e+06  -4.7006264689340172e+06  -2.4618771143134004e+06  -2.0247747457939554e+06  -8.9204246025976315e+06  1.0232486345790103e+06  6.6966915574695929e-01  0.0000000000000000e+00  1.9551810957323387e+07  -1.1252514789685840e+07  1.5905446360598737e+07  -7.2666988977316078e+06  1.2696415842562178e+07  -4.9964164175090753e+06  1.0236296256778851e+07  -5.3160856975832749e+06  8.0800125140222861e+06  -4.0051729222073061e+06  7.3637849464741079e+06  -5.8833627727106204e+06  5.7890063849779014e+06  -4.0833770481320242e+06  6.7986501998735396e+06  -7.8819231542401863e+06  6.0033525863009281e+06  -4.6899904890724299e+06  6.7088423293546345e+06  -7.1870686620536111e+06  7.5939886074153511e+06  -5.5898311753269425e+06  8.7802383450307734e+06  -6.4257470261158850e+06  9.8203336281426828e+06  -6.2390142970942585e+06  1.2676282110672407e+07  -1.1746996520986548e+07  1.7515118718797192e+07  4.9787641454428067e-01  0.0000000000000000e+00  3.6602610327236541e+05  -1.0214287162454735e+07  -4.5157551100285966e+06  -3.6950265852400260e+06  -5.1158862230593162e+06  -1.0916003480720704e+06  -6.6192542768563516e+06  1.6927176836729341e+06  -6.2588894759399174e+06  3.2256701050842237e+06  -7.9448276450668592e+06  5.4569725060390644e+06  -5.8841167711806400e+06  4.5058922441043006e+06  -6.2794855853294469e+06  5.2665813640299477e+06  -4.6899904790183809e+06  5.9576031665826235e+06  -7.5544711764268102e+06  6.2115084154476495e+06  -5.3554824806728186e+06  4.0118129732848862e+06  -5.7435927666091677e+06  2.0105512539715860e+06  -3.3203965729208896e+06  -1.4956337093600926e+06  -2.3792853084150711e+06  -8.4103966192710642e+06  2.7735705234107487e+06  3.6147073129865032e-01  0.0000000000000000e+00  2.1516907927403871e+07  -1.1515443260682929e+07  1.6399503732512958e+07  -5.5155309882830363e+06  1.3300124478746543e+07  -5.4154961096178936e+06  1.3262705169538150e+07  -6.9247984730426157e+06  1.2671015058911514e+07  -9.1938902355116177e+06  1.3251841835560663e+07  -7.9453904902221691e+06  7.3644600265507707e+06  -4.9933720213152608e+06  6.3444126372769922e+06  -5.3657209773234343e+06  6.7088422846633000e+06  -7.5544711484897006e+06  6.9768381119548138e+06  -5.2701301864467505e+06  5.6466315431749364e+06  -5.8937103353904495e+06  7.1704873290970298e+06  -4.7262067983555766e+06  7.8389240595727181e+06  -6.6059803533038553e+06  1.1306592246638779e+07  -1.1439966880703166e+07  1.6797373404730327e+07  2.5522246223686051e-01  0.0000000000000000e+00  1.1554452463435123e+06  -1.1112531404688017e+07  -5.7669729230765142e+06  -3.8201550427901889e+06  -8.7403439883517623e+06  1.4634800999375100e+06  -1.0520744057609376e+07  3.0435168558227946e+06  -9.7432543432686292e+06  5.1337476600242136e+06  -9.1942772881748937e+06  3.2261579325381769e+06  -4.0052504073343528e+06  2.6720700007182099e+06  -5.7540013476756187e+06  5.3844194488212131e+06  -7.1870686159052663e+06  6.2115083816765118e+06  -5.2701301803997932e+06  4.9160453403957626e+06  -5.7945613848391287e+06  5.1735861402453259e+06  -4.5034571298283143e+06  2.1681295747678895e+06  -4.0993536823891867e+06  3.3638437248408905e+05  -2.1399295820080801e+06  -8.9243865894096699e+06  5.1259527024332052e+06  1.7432037581917942e-01  0.0000000000000000e+00  2.5179338158136498e+07  -1.3257404918569941e+07  1.9626969339144364e+07  -9.6524559773486350e+06  2.1909255905268759e+07  -1.2954072000612751e+07  2.2303232914929137e+07  -1.2512288356340528e+07  1.8161479004156124e+07  -9.7435030469791442e+06  1.2671342294297226e+07  -6.2589527088945117e+06  8.0796764080309262e+06  -6.1704181114775119e+06  9.0523712588300277e+06  -6.7506657864932399e+06  7.5939885547913015e+06  -5.3554824281047611e+06  5.6466315257021859e+06  -5.7945613692828873e+06  5.8593662791212248e+06  -4.6991169409455266e+06  4.5766991431394415e+06  -4.5301983809133423e+06  6.9966719800965050e+06  -5.5329693508777292e+06  7.6485352618155638e+06  -1.0588866529294053e+07  1.7273750079788949e+07  1.1437170703643099e-01  0.0000000000000000e+00  4.7877274708437506e+05  -8.4663412448412105e+06  -1.2275586470278146e+07  6.9593536439744406e+05  -1.4964348695724143e+07  3.0017834072621800e+06  -1.3628960227387935e+07  4.2321854290192211e+06  -1.2512438495663041e+07  3.0437227862302419e+06  -6.9248457089062799e+06  1.6925031737968714e+06  -5.3157922575313617e+06  2.7428884324386916e+06  -6.1766564560413165e+06  3.2394876983201937e+06  -5.5898311738098683e+06  4.0118129193639145e+06  -5.8937103204594422e+06  5.1735861139697116e+06  -4.6991169360328121e+06  3.9115931284748614e+06  -4.2822247299473379e+06  4.1607963407069775e+06  -4.4217423371780207e+06  2.0149314481267147e+05  -2.3323917990398458e+06  -7.8698670499171596e+06  7.5044432388038225e+06  7.1401625935535909e-02  0.0000000000000000e+00  3.7279134570453390e+07  -2.2699586386120662e+07  3.2383605491081353e+07  -2.3135986418852191e+07  3.5690741643975057e+07  -1.9617055345982544e+07  2.7399984493503641e+07  -1.3629047144072101e+07  2.2303355758716635e+07  -1.0520777572059065e+07  1.3262578193901574e+07  -6.6190687497788733e+06  1.0236253772133494e+07  -5.6128407374951793e+06  9.5043993877927959e+06  -5.5390278333561327e+06  8.7802382874991354e+06  -5.7435926458584005e+06  7.1704872958301408e+06  -4.5034570836484777e+06  4.5766991361568412e+06  -4.2822247206442710e+06  4.8460545336393043e+06  -4.6141243544908036e+06  3.7985151182407248e+06  -3.4296458562730127e+06  4.1389946972289700e+06  -9.7430349463410303e+06  1.8582849377027847e+07  4.1854322234184921e-02  0.0000000000000000e+00  -6.7043052884340798e+06  -1.8881327306041350e+06  -2.0740235777518712e+07  3.7301545826195260e+06  -2.1966958770858422e+07  6.9524537660014583e+06  -1.9617102912062280e+07  3.0018534708511005e+06  -1.2954093799111472e+07  1.4634098362695584e+06  -5.4153862986933449e+06  -1.0916299153992836e+06  -4.9965187510831002e+06  2.4778391168849857e+05  -6.4974177564722653e+06  1.9000992906188788e+06  -6.4257470344528379e+06  2.0105511723501927e+06  -4.7262068243402559e+06  2.1681295407388997e+06  -4.5301983855794379e+06  4.1607963186075008e+06  -4.6141243488766355e+06  3.0993332337824707e+06  -2.9300518089540037e+06  5.9278822960812808e+05  -5.4026627364406465e+06  -4.4935882722564833e+06  1.0941554364938721e+07  2.2591920706165620e-02  0.0000000000000000e+00  6.5667386548817374e+07  -3.6708825644339375e+07  4.9801788996558294e+07  -3.3713320435092844e+07  4.1377782839157030e+07  -2.1966984442940775e+07  3.5690780016732521e+07  -1.4964362978387097e+07  2.1909219556532167e+07  -8.7402836972598676e+06  1.3300105902311029e+07  -5.1159435705877813e+06  1.2696495443440545e+07  -5.5424817010660060e+06  1.2376690136164920e+07  -4.7006262256614789e+06  9.8203336069297828e+06  -3.3203964279728262e+06  7.8389240503051709e+06  -4.0993535794071988e+06  6.9966719575417871e+06  -4.4217422852743184e+06  3.7985151132544009e+06  -2.9300518037023735e+06  1.6138842875934104e+06  -5.1452313940902306e+06  1.0267133707547690e+06  -4.8638081846365603e+06  1.9683792470909882e+07  1.0895023488698698e-02  0.0000000000000000e+00  -2.0419861537120637e+07  2.7367921203668169e+06  -3.3577278566551484e+07  1.2802004306748554e+07  -3.3713332926812232e+07  3.7301747818473554e+06  -2.313599473226