<?xml version="1.0"?>
<VTKFile type="UnstructuredGrid"  version="0.1"  >
<UnstructuredGrid>
<Piece  NumberOfPoints="961" NumberOfCells="1800">
<Points>
<DataArray  type="Float64"  NumberOfComponents="3"  format="ascii">-1 -1 0  -0.9333333333333333 -1 0  -0.8666666666666667 -1 0  -0.8 -1 0  -0.7333333333333334 -1 0  -0.6666666666666667 -1 0  -0.6 -1 0  -0.5333333333333333 -1 0  -0.4666666666666667 -1 0  -0.4 -1 0  -0.3333333333333334 -1 0  -0.2666666666666667 -1 0  -0.2 -1 0  -0.1333333333333333 -1 0  -0.06666666666666665 -1 0  0 -1 0  0.06666666666666665 -1 0  0.1333333333333333 -1 0  0.2 -1 0  0.2666666666666666 -1 0  0.3333333333333333 -1 0  0.3999999999999999 -1 0  0.4666666666666666 -1 0  0.5333333333333334 -1 0  0.6000000000000001 -1 0  0.6666666666666667 -1 0  0.7333333333333334 -1 0  0.8 -1 0  0.8666666666666667 -1 0  0.9333333333333333 -1 0  1 -1 0  -1 -0.9333333333333333 0  -0.9333333333333333 -0.9333333333333333 0  -0.8666666666666667 -0.9333333333333333 0  -0.8 -0.9333333333333333 0  -0.7333333333333334 -0.9333333333333333 0  -0.6666666666666667 -0.9333333333333333 0  -0.6 -0.9333333333333333 0  -0.5333333333333333 -0.9333333333333333 0  -0.4666666666666667 -0.9333333333333333 0  -0.4 -0.9333333333333333 0  -0.3333333333333334 -0.9333333333333333 0  -0.2666666666666667 -0.9333333333333333 0  -0.2 -0.9333333333333333 0  -0.1333333333333333 -0.9333333333333333 0  -0.06666666666666665 -0.9333333333333333 0  0 -0.9333333333333333 0  0.06666666666666665 -0.9333333333333333 0  0.1333333333333333 -0.9333333333333333 0  0.2 -0.9333333333333333 0  0.2666666666666666 -0.9333333333333333 0  0.3333333333333333 -0.9333333333333333 0  0.3999999999999999 -0.9333333333333333 0  0.4666666666666666 -0.9333333333333333 0  0.5333333333333334 -0.9333333333333333 0  0.6000000000000001 -0.9333333333333333 0  0.6666666666666667 -0.9333333333333333 0  0.7333333333333334 -0.9333333333333333 0  0.8 -0.9333333333333333 0  0.8666666666666667 -0.9333333333333333 0  0.9333333333333333 -0.9333333333333333 0  1 -0.9333333333333333 0  -1 -0.8666666666666667 0  -0.9333333333333333 -0.8666666666666667 0  -0.8666666666666667 -0.8666666666666667 0  -0.8 -0.8666666666666667 0  -0.7333333333333334 -0.8666666666666667 0  -0.6666666666666667 -0.8666666666666667 0  -0.6 -0.8666666666666667 0  -0.5333333333333333 -0.8666666666666667 0  -0.4666666666666667 -0.8666666666666667 0  -0.4 -0.8666666666666667 0  -0.3333333333333334 -0.8666666666666667 0  -0.2666666666666667 -0.8666666666666667 0  -0.2 -0.8666666666666667 0  -0.1333333333333333 -0.8666666666666667 0  -0.06666666666666665 -0.8666666666666667 0  0 -0.8666666666666667 0  0.06666666666666665 -0.8666666666666667 0  0.1333333333333333 -0.8666666666666667 0  0.2 -0.8666666666666667 0  0.2666666666666666 -0.8666666666666667 0  0.3333333333333333 -0.8666666666666667 0  0.3999999999999999 -0.8666666666666667 0  0.4666666666666666 -0.8666666666666667 0  0.5333333333333334 -0.8666666666666667 0  0.6000000000000001 -0.8666666666666667 0  0.6666666666666667 -0.8666666666666667 0  0.7333333333333334 -0.8666666666666667 0  0.8 -0.8666666666666667 0  0.8666666666666667 -0.8666666666666667 0  0.9333333333333333 -0.8666666666666667 0  1 -0.8666666666666667 0  -1 -0.8 0  -0.9333333333333333 -0.8 0  -0.8666666666666667 -0.8 0  -0.8 -0.8 0  -0.7333333333333334 -0.8 0  -0.6666666666666667 -0.8 0  -0.6 -0.8 0  -0.5333333333333333 -0.8 0  -0.4666666666666667 -0.8 0  -0.4 -0.8 0  -0.3333333333333334 -0.8 0  -0.2666666666666667 -0.8 0  -0.2 -0.8 0  -0.1333333333333333 -0.8 0  -0.06666666666666665 -0.8 0  0 -0.8 0  0.06666666666666665 -0.8 0  0.1333333333333333 -0.8 0  0.2 -0.8 0  0.2666666666666666 -0.8 0  0.3333333333333333 -0.8 0  0.3999999999999999 -0.8 0  0.4666666666666666 -0.8 0  0.5333333333333334 -0.8 0  0.6000000000000001 -0.8 0  0.6666666666666667 -0.8 0  0.7333333333333334 -0.8 0  0.8 -0.8 0  0.8666666666666667 -0.8 0  0.9333333333333333 -0.8 0  1 -0.8 0  -1 -0.7333333333333334 0  -0.9333333333333333 -0.7333333333333334 0  -0.8666666666666667 -0.7333333333333334 0  -0.8 -0.7333333333333334 0  -0.7333333333333334 -0.7333333333333334 0  -0.6666666666666667 -0.7333333333333334 0  -0.6 -0.7333333333333334 0  -0.5333333333333333 -0.7333333333333334 0  -0.4666666666666667 -0.7333333333333334 0  -0.4 -0.7333333333333334 0  -0.3333333333333334 -0.7333333333333334 0  -0.2666666666666667 -0.7333333333333334 0  -0.2 -0.7333333333333334 0  -0.1333333333333333 -0.7333333333333334 0  -0.06666666666666665 -0.7333333333333334 0  0 -0.7333333333333334 0  0.06666666666666665 -0.7333333333333334 0  0.1333333333333333 -0.7333333333333334 0  0.2 -0.7333333333333334 0  0.2666666666666666 -0.7333333333333334 0  0.3333333333333333 -0.7333333333333334 0  0.3999999999999999 -0.7333333333333334 0  0.4666666666666666 -0.7333333333333334 0  0.5333333333333334 -0.7333333333333334 0  0.6000000000000001 -0.7333333333333334 0  0.6666666666666667 -0.7333333333333334 0  0.7333333333333334 -0.7333333333333334 0  0.8 -0.7333333333333334 0  0.8666666666666667 -0.7333333333333334 0  0.9333333333333333 -0.7333333333333334 0  1 -0.7333333333333334 0  -1 -0.6666666666666667 0  -0.9333333333333333 -0.6666666666666667 0  -0.8666666666666667 -0.6666666666666667 0  -0.8 -0.6666666666666667 0  -0.7333333333333334 -0.6666666666666667 0  -0.6666666666666667 -0.6666666666666667 0  -0.6 -0.6666666666666667 0  -0.5333333333333333 -0.6666666666666667 0  -0.4666666666666667 -0.6666666666666667 0  -0.4 -0.6666666666666667 0  -0.3333333333333334 -0.6666666666666667 0  -0.2666666666666667 -0.6666666666666667 0  -0.2 -0.6666666666666667 0  -0.1333333333333333 -0.6666666666666667 0  -0.06666666666666665 -0.6666666666666667 0  0 -0.6666666666666667 0  0.06666666666666665 -0.6666666666666667 0  0.1333333333333333 -0.6666666666666667 0  0.2 -0.6666666666666667 0  0.2666666666666666 -0.6666666666666667 0  0.3333333333333333 -0.6666666666666667 0  0.3999999999999999 -0.6666666666666667 0  0.4666666666666666 -0.6666666666666667 0  0.5333333333333334 -0.6666666666666667 0  0.6000000000000001 -0.6666666666666667 0  0.6666666666666667 -0.6666666666666667 0  0.7333333333333334 -0.6666666666666667 0  0.8 -0.6666666666666667 0  0.8666666666666667 -0.6666666666666667 0  0.9333333333333333 -0.6666666666666667 0  1 -0.6666666666666667 0  -1 -0.6 0  -0.9333333333333333 -0.6 0  -0.8666666666666667 -0.6 0  -0.8 -0.6 0  -0.7333333333333334 -0.6 0  -0.6666666666666667 -0.6 0  -0.6 -0.6 0  -0.5333333333333333 -0.6 0  -0.4666666666666667 -0.6 0  -0.4 -0.6 0  -0.3333333333333334 -0.6 0  -0.2666666666666667 -0.6 0  -0.2 -0.6 0  -0.1333333333333333 -0.6 0  -0.06666666666666665 -0.6 0  0 -0.6 0  0.06666666666666665 -0.6 0  0.1333333333333333 -0.6 0  0.2 -0.6 0  0.2666666666666666 -0.6 0  0.3333333333333333 -0.6 0  0.3999999999999999 -0.6 0  0.4666666666666666 -0.6 0  0.5333333333333334 -0.6 0  0.6000000000000001 -0.6 0  0.6666666666666667 -0.6 0  0.7333333333333334 -0.6 0  0.8 -0.6 0  0.8666666666666667 -0.6 0  0.9333333333333333 -0.6 0  1 -0.6 0  -1 -0.5333333333333333 0  -0.9333333333333333 -0.5333333333333333 0  -0.8666666666666667 -0.5333333333333333 0  -0.8 -0.5333333333333333 0  -0.7333333333333334 -0.5333333333333333 0  -0.6666666666666667 -0.5333333333333333 0  -0.6 -0.5333333333333333 0  -0.5333333333333333 -0.5333333333333333 0  -0.4666666666666667 -0.5333333333333333 0  -0.4 -0.5333333333333333 0  -0.3333333333333334 -0.5333333333333333 0  -0.2666666666666667 -0.5333333333333333 0  -0.2 -0.5333333333333333 0  -0.1333333333333333 -0.5333333333333333 0  -0.06666666666666665 -0.5333333333333333 0  0 -0.5333333333333333 0  0.06666666666666665 -0.5333333333333333 0  0.1333333333333333 -0.5333333333333333 0  0.2 -0.5333333333333333 0  0.2666666666666666 -0.5333333333333333 0  0.3333333333333333 -0.5333333333333333 0  0.3999999999999999 -0.5333333333333333 0  0.4666666666666666 -0.5333333333333333 0  0.5333333333333334 -0.5333333333333333 0  0.6000000000000001 -0.5333333333333333 0  0.6666666666666667 -0.5333333333333333 0  0.7333333333333334 -0.5333333333333333 0  0.8 -0.5333333333333333 0  0.8666666666666667 -0.5333333333333333 0  0.9333333333333333 -0.5333333333333333 0  1 -0.5333333333333333 0  -1 -0.4666666666666667 0  -0.9333333333333333 -0.4666666666666667 0  -0.8666666666666667 -0.4666666666666667 0  -0.8 -0.4666666666666667 0  -0.7333333333333334 -0.4666666666666667 0  -0.6666666666666667 -0.4666666666666667 0  -0.6 -0.4666666666666667 0  -0.5333333333333333 -0.4666666666666667 0  -0.4666666666666667 -0.4666666666666667 0  -0.4 -0.4666666666666667 0  -0.3333333333333334 -0.4666666666666667 0  -0.2666666666666667 -0.4666666666666667 0  -0.2 -0.4666666666666667 0  -0.1333333333333333 -0.4666666666666667 0  -0.06666666666666665 -0.4666666666666667 0  0 -0.4666666666666667 0  0.06666666666666665 -0.4666666666666667 0  0.1333333333333333 -0.4666666666666667 0  0.2 -0.4666666666666667 0  0.2666666666666666 -0.4666666666666667 0  0.3333333333333333 -0.4666666666666667 0  0.3999999999999999 -0.4666666666666667 0  0.4666666666666666 -0.4666666666666667 0  0.5333333333333334 -0.4666666666666667 0  0.6000000000000001 -0.4666666666666667 0  0.6666666666666667 -0.4666666666666667 0  0.7333333333333334 -0.4666666666666667 0  0.8 -0.4666666666666667 0  0.8666666666666667 -0.4666666666666667 0  0.9333333333333333 -0.4666666666666667 0  1 -0.4666666666666667 0  -1 -0.4 0  -0.9333333333333333 -0.4 0  -0.8666666666666667 -0.4 0  -0.8 -0.4 0  -0.7333333333333334 -0.4 0  -0.6666666666666667 -0.4 0  -0.6 -0.4 0  -0.5333333333333333 -0.4 0  -0.4666666666666667 -0.4 0  -0.4 -0.4 0  -0.3333333333333334 -0.4 0  -0.2666666666666667 -0.4 0  -0.2 -0.4 0  -0.1333333333333333 -0.4 0  -0.06666666666666665 -0.4 0  0 -0.4 0  0.06666666666666665 -0.4 0  0.1333333333333333 -0.4 0  0.2 -0.4 0  0.2666666666666666 -0.4 0  0.3333333333333333 -0.4 0  0.3999999999999999 -0.4 0  0.4666666666666666 -0.4 0  0.5333333333333334 -0.4 0  0.6000000000000001 -0.4 0  0.6666666666666667 -0.4 0  0.7333333333333334 -0.4 0 
[...]
<PointData  Scalars="f_24"> 
<DataArray  type="Float64"  Name="f_24"  format="ascii">0.0000000000000000e+00  0.0000000000000000e+00  0.0000000000000000e+00  0.0000000000000000e+00  0.0000000000000000e+00  0.0000000000000000e+00  0.0000000000000000e+00  0.0000000000000000e+00  0.0000000000000000e+00  0.0000000000000000e+00  0.0000000000000000e+00  0.0000000000000000e+00  0.0000000000000000e+00  0.0000000000000000e+00  0.0000000000000000e+00  0.0000000000000000e+00  0.0000000000000000e+00  0.0000000000000000e+00  0.0000000000000000e+00  0.0000000000000000e+00  0.0000000000000000e+00  0.0000000000000000e+00  0.0000000000000000e+00  0.0000000000000000e+00  0.0000000000000000e+00  3.3273555903072208e-08  0.0000000000000000e+00  -3.6712443410792254e-07  0.0000000000000000e+00  0.0000000000000000e+00  1.3840356689771859e+01  0.0000000000000000e+00  1.2544929958935240e+07  1.3631135639521144e+07  1.9841332233093653e+07  1.4162288495864429e+07  1.9459449922191691e+07  1.0907572827151358e+07  1.8410271367694009e+07  7.5601455868911212e+06  1.7142236392518181e+07  5.2387876488497546e+06  1.6681743130894262e+07  2.9367542696178700e+06  1.7387551913064953e+07  1.2221723485096013e+06  1.8199009755462155e+07  6.2661163910528109e+05  1.9383901009956203e+07  5.7651007313368598e+05  2.1307401710797127e+07  1.3456295188902884e+06  2.4889798774637662e+07  6.7087663693587354e+05  3.6733587781053834e+07  -6.3929824325444503e+06  6.4529462704903260e+07  -1.9876359338602677e+07  1.0730980361658831e+08  -1.2199122917379422e+07  2.3386452800151461e+08  1.2085211506047568e+01  0.0000000000000000e+00  1.3631135617527556e+07  1.4863197407412434e+07  5.6966792440051008e+06  2.2557007497785063e+06  -4.5790594405084513e+06  -4.2331907314604409e+06  -9.4028432914571967e+06  -7.5931377473091995e+06  -1.0284307559997542e+07  -8.6761401880524736e+06  -1.1161850717250576e+07  -8.2077547712233309e+06  -1.1489773025267422e+07  -8.7259147853395976e+06  -1.0851798953691589e+07  -9.5409399579861704e+06  -1.1005928301889248e+07  -9.9773471158427820e+06  -1.1237449683771159e+07  -1.0823158413832659e+07  -1.2902707051757535e+07  -8.1813769363283673e+06  -2.2107611907577533e+07  -1.6854475776676578e+06  -3.5801108874212496e+07  2.8678594695231318e+06  -3.0952664185174249e+07  -1.9140824283698622e+07  -1.2199131629403628e+07  1.0502541087544222e+01  -1.0768680752494630e-08  1.9841332223415542e+07  5.6966792477181200e+06  1.7337491399073054e+06  -5.3011360860235449e+06  1.1145342392386547e+06  -5.2441249402161837e+06  4.0575023077478954e+06  -2.3267546756022973e+06  7.4263936192580741e+06  -2.1889435367635023e+06  1.0978531330492200e+07  -2.4443749935972751e+06  1.2309299755740177e+07  -2.1027413083485872e+06  1.3484307521768684e+07  -3.3057871765968897e+06  1.5476011310084688e+07  -4.5366555382361272e+06  1.5973251153410353e+07  -5.7413844936556499e+06  1.9171195592965692e+07  -1.2070441248492999e+07  3.1745453163947318e+07  -2.0278342435132738e+07  4.8921397191592067e+07  -3.2759611584120002e+07  5.8494686102657385e+07  -3.0952663585902482e+07  1.0730980530919567e+08  9.0806580904897665e+00  0.0000000000000000e+00  1.4162288427626813e+07  2.2557007707129139e+06  -5.3011360924452180e+06  3.2018453925370867e+05  -5.0416130962128863e+06  5.2121972724971565e+05  -3.4585150566974664e+06  8.5121222357837905e+04  -5.5373634604377476e+06  2.2252163718779039e+05  -6.5733839081193423e+06  -1.5547344359208760e+06  -6.1969114717319431e+06  -2.4896452269856906e+06  -7.1122925044520507e+06  -2.2200422052170108e+06  -7.2034388903780980e+06  -3.7093554818505044e+06  -5.5026136115852166e+06  -3.8495028357493374e+06  -9.5718907185333446e+06  5.7422060544559581e+05  -2.2769313524867926e+07  3.6019084777824716e+06  -3.3040863120674744e+07  1.2629574475021256e+07  -3.2759620749819577e+07  2.8678656558305318e+06  -1.9876366632135816e+07  7.8082849860064023e+00  -6.1807086441959779e-09  1.9459449902469546e+07  -4.5790594005542053e+06  1.1145342461617184e+06  -5.0416131001857677e+06  1.5072654441863217e+06  -2.9802565230557923e+06  3.6145268954765624e+06  -4.4263778065184914e+06  6.7876989824669324e+06  -4.0693521432247185e+06  7.6478020097816521e+06  -3.2801995442178538e+06  9.6069597230050005e+06  -4.6234394176931223e+06  1.2117221275408760e+07  -5.4488111221594959e+06  1.2425762535605671e+07  -5.0407237580118021e+06  1.3000799193862742e+07  -8.6186399097538907e+06  2.1405536085605033e+07  -1.4759482947419185e+07  3.4878543102008164e+07  -2.1635692186357636e+07  4.0490554417364597e+07  -3.3040874192976926e+07  4.8921407621106192e+07  -3.5801110002759121e+07  6.4529462127043024e+07  6.6745547307927575e+00  0.0000000000000000e+00  1.0907572727943238e+07  -4.2331906715277554e+06  -5.2441249966009278e+06  5.2121973982207745e+05  -2.9802565282017333e+06  2.9335271019765176e+06  -4.5996785283753257e+06  4.0314135637685787e+06  -4.4657757432096954e+06  2.1138267065750291e+06  -4.6368525187799856e+06  1.9700479327209087e+06  -6.2983134615926696e+06  1.8636950640604603e+06  -6.3680048223563498e+06  2.4348450173745921e+05  -4.8977138719988950e+06  -1.0716539698162526e+06  -5.3135899402703904e+06  1.4223477041038736e+06  -1.2723226530218158e+07  2.8951391497862395e+06  -1.9305154028438214e+07  6.7124321654670164e+06  -2.1635718714543056e+07  3.6019289760830794e+06  -2.0278350242096055e+07  -1.6854484624131294e+06  -6.3929849144404465e+06  5.6690101001305546e+00  3.7429276254515650e-09  1.8410271356832281e+07  -9.4028432322295904e+06  4.0575023021345404e+06  -3.4585150340449633e+06  3.6145269004173321e+06  -4.5996785338892825e+06  4.7105809230872244e+06  -4.2126320378889199e+06  4.4831708784938110e+06  -4.4127876507958593e+06  7.0308491445903862e+06  -5.6281787728352919e+06  8.6083074444378186e+06  -5.4281182793183876e+06  9.3174425140951928e+06  -5.5002603573144637e+06  1.0035420613789981e+07  -6.4865010280193090e+06  1.3001963719280571e+07  -1.0312491684251314e+07  2.1857584031110018e+07  -1.3375456112818345e+07  2.6817789287471641e+07  -1.9305200110109229e+07  3.4878581082732938e+07  -2.2769321171628863e+07  3.1745446402164698e+07  -2.2107604588106643e+07  3.6733586602011994e+07  4.7816040202746244e+00  0.0000000000000000e+00  7.5601454558903137e+06  -7.5931376624635281e+06  -2.3267547682764982e+06  8.5121255912297711e+04  -4.4263778571950356e+06  4.0314135853788210e+06  -4.2126320469965814e+06  3.8327400122780818e+06  -4.6041492874855259e+06  5.0727294915670101e+06  -5.7768581692618225e+06  3.9328092124262573e+06  -5.4796055299323872e+06  3.1748534561605523e+06  -6.0547125949867005e+06  2.6883759241485684e+06  -5.2113334979335656e+06  1.6593772713270651e+06  -6.7870336053891154e+06  2.9850557492577089e+06  -1.2263459655824579e+07  4.1458514707040088e+06  -1.3375541996899752e+07  2.8952082065236205e+06  -1.4759498215054376e+07  5.7420434963802225e+05  -1.2070428858326288e+07  -8.1813783287550630e+06  6.7087160049630806e+05  4.0026995021224661e+00  2.5951498862510137e-08  1.7142236392707277e+07  -1.0284307473332981e+07  7.4263935998019660e+06  -5.5373634281491702e+06  6.7876990050348807e+06  -4.4657757388041448e+06  4.4831708853889676e+06  -4.6041492923109299e+06  5.7448667842337796e+06  -5.6798156899301913e+06  5.5353138618249921e+06  -5.2495070830824869e+06  7.4435169995559985e+06  -6.6165571220162669e+06  8.8736083515097834e+06  -6.0484829955095323e+06  7.9203735373887233e+06  -6.1351020956511395e+06  1.2420019384335490e+07  -9.5503440116530955e+06  1.7803514769002851e+07  -1.2263606472935054e+07  2.1857704619190488e+07  -1.2723247707222024e+07  2.1405500798813120e+07  -9.5718595141313709e+06  1.9171190409352116e+07  -1.2902712058207601e+07  2.4889802076244045e+07  3.3230695926008642e+00  0.0000000000000000e+00  5.2387874919657996e+06  -8.6761400860717539e+06  -2.1889436877716528e+06  2.2252172272193202e+05  -4.0693522432894437e+06  2.1138267395691057e+06  -4.4127876959139295e+06  5.0727295172766820e+06  -5.6798157051683562e+06  4.8189881166726192e+06  -5.1660731858671838e+06  6.0881528262637639e+06  -7.0446550069428775e+06  5.2779176866292572e+06  -5.6410448479671087e+06  2.6195423682714985e+06  -3.9262018381729810e+06  3.1620973300364176e+06  -9.0118777259031609e+06  5.0321902632807447e+06  -9.5505881651228536e+06  2.9852578251762353e+06  -1.0312525342169201e+07  1.4222794428249556e+06  -8.6185819818685334e+06  -3.8495124839498647e+06  -5.7414003457795298e+06  -1.0823147551225943e+07  1.3456262058779248e+06  2.7338976177327141e+00  -3.9598199541539497e-09  1.6681743146486258e+07  -1.1161850623754008e+07  1.0978531331855638e+07  -6.5733838660951192e+06  7.6478020203540260e+06  -4.6368524939787854e+06  7.0308491774955597e+06  -5.7768581840246841e+06  5.5353138789976342e+06  -5.1660731918077739e+06  6.8385198559245476e+06  -7.4044816310088933e+06  6.5763696639575008e+06  -5.2601026211747490e+06  6.2197314738048650e+06  -4.8942220177471191e+06  7.2181893620948112e+06  -7.7878689053951763e+06  1.2989547739121845e+07  -9.0122569792207163e+06  1.2420340310454786e+07  -6.7870799369485574e+06  1.3001839672436608e+07  -5.3134823799220249e+06  1.3000781356825933e+07  -5.5026424318245938e+06  1.5973273169654582e+07  -1.1237450916678037e+07  2.1307397988757275e+07  2.2267766965034053e+00  0.0000000000000000e+00  2.9367540664317943e+06  -8.2077546285891943e+06  -2.4443752107146508e+06  -1.5547343259931051e+06  -3.2801996840161616e+06  1.9700480116348576e+06  -5.6281788906746749e+06  3.9328092650405718e+06  -5.2495071345009413e+06  6.0881528593247943e+06  -7.4044816583777685e+06  5.8397891780617516e+06  -4.5980587340515088e+06  5.1630762576499637e+06  -6.1554016170064155e+06  4.4158088781338744e+06  -5.7670326587313060e+06  5.3494331746221436e+06  -7.7884210037644664e+06  3.1625758318242342e+06  -6.1351647409151178e+06  1.6591676121335847e+06  -6.4863200975170229e+06  -1.0716822930605414e+06  -5.0407809662723178e+06  -3.7093118596825288e+06  -4.5366604697486721e+06  -9.9773572953836713e+06  5.7651310550779779e+05  1.7937102269944329e+00  -5.3926721479841133e-06  1.7387551963641778e+07  -1.1489772928270107e+07  1.2309299760937931e+07  -6.1969113976721922e+06  9.6069597470294125e+06  -6.2983134550251951e+06  8.6083075016523506e+06  -5.4796055318357507e+06  7.4435170513375318e+06  -7.0446550522729214e+06  6.5763697078015590e+06  -4.5980587439202173e+06  5.8855352222983409e+06  -7.7258950590545479e+06  6.6633869831853481e+06  -4.0015222516746172e+06  5.6743432671709256e+06  -5.7677719319191882e+06  7.2188514733922333e+06  -3.9262780268025608e+06  7.9200445165930493e+06  -5.2110461260303054e+06  1.0035379351791639e+07  -4.8978142425370552e+06  1.2425840835065490e+07  -7.2034443876535529e+06  1.5475987426883519e+07  -1.1005914712379195e+07  1.9383901392048348e+07  1.4271116433165869e+00  0.0000000000000000e+00  1.2221720772126545e+06  -8.7259146121702362e+06  -2.1027415791507647e+06  -2.4896450776957758e+06  -4.6234396519170245e+06  1.8636952112522142e+06  -5.4281184594366690e+06  3.1748535569031602e+06  -6.6165572759087011e+06  5.2779177844482148e+06  -5.2601026957306629e+06  5.1630762964933757e+06  -7.7258951090540094e+06  6.6365180381480707e+06  -2.4265611229841495e+06  7.4678478829377890e+05  -4.0024271610171953e+06  4.4166509692362593e+06  -4.8943093935463103e+06  2.6190685632490399e+06  -6.0480639997410877e+06  2.6883227215899853e+06  -5.5004290930069704e+06  2.4361634446475666e+05  -5.4488205178525904e+06  -2.2200877159377378e+06  -3.3057615724147363e+06  -9.5409374759848565e+06  6.2660358741180599e+05  1.1198044642233191e+00  0.0000000000000000e+00  1.8199009840970472e+07  -1.0851798826350180e+07  1.3484307541304514e+07  -7.1122924419203652e+06  1.2117221356546108e+07  -6.3680048254045416e+06  9.3174425988379046e+06  -6.0547126358065847e+06  8.8736084802819788e+06  -5.6410449126095949e+06  6.2197315691611683e+06  -6.1554017265239665e+06  6.6633871268919017e+06  -2.4265611835675039e+06  -2.4854521412393381e+05  -2.4275639460759810e+06  6.6643632124343878e+06  -6.1554945305386968e+06  6.2191109966708208e+06  -5.6404826247013472e+06  8.8735467065348811e+06  -6.0549708123760186e+06  9.3176463818855211e+06  -6.3680144516807068e+06  1.2117140453940149e+07  -7.1122435934886243e+06  1.3484312226760605e+07  -1.0851816400446853e+07  1.8199015731471919e+07  8.6502229311074119e-01  0.0000000000000000e+00  6.2661128059676767e+05  -9.5409397386554498e+06  -3.3057875649700104e+06  -2.2200419574098843e+06  -5.4488114771136120e+06  2.4348471578684563e+05  -5.5002606528662806e+06  2.6883761471926514e+06  -6.0484832846590867e+06  2.6195425587474359e+06  -4.8942222649065861e+06  4.4158091007400705e+06  -4.0015224269627891e+06  7.4678478824991081e+05  -2.4275638854699885e+06  6.6375441166130872e+06  -7.7259902511112439e+06  5.1623439477716172e+06  -5.2594167034254223e+06  5.2778531045872997e+06  -6.6169188128328519e+06  3.1751424678827571e+06  -5.4281266004139539e+06  1.8635644157620284e+06  -4.6233600224911440e+06  -2.4896351518120002e+06  -2.1027779171342892e+06  -8.7259000045054220e+06  1.2221740797970442e+06  6.5640881801762441e-01  0.0000000000000000e+00  1.9383901144663543e+07  -1.1005928163524002e+07  1.5476011404498249e+07  -7.2034388615806000e+06  1.2425762675730865e+07  -4.8977139049754534e+06  1.0035420805163791e+07  -5.2113336271168469e+06  7.9203737524895603e+06  -3.9262019571314026e+06  7.2181895614136085e+06  -5.7670327610961646e+06  5.6743432670841310e+06  -4.0024269856169233e+06  6.6643630687432811e+06  -7.7259902011153381e+06  5.8847607563459966e+06  -4.5972997196479635e+06  6.5763058130032644e+06  -7.0451097739570169e+06  7.4438891606637826e+06  -5.4796066665260484e+06  8.6081141211594548e+06  -6.2981931071064202e+06  9.6069777307285499e+06  -6.1969728442357033e+06  1.2309325668866334e+07  -1.1489764231186586e+07  1.7387542313687935e+07  4.8801780043687165e-01  0.0000000000000000e+00  5.7650955422061437e+05  -9.9773467772960197e+06  -4.5366561187513107e+06  -3.7093551251656096e+06  -5.0407242541077491e+06  -1.0716536413704203e+06  -6.4865014891056502e+06  1.6593775727522355e+06  -6.1351024278219314e+06  3.1620974970125649e+06  -7.7878691045156056e+06  5.3494331745681316e+06  -5.7677718293890627e+06  4.4166507464872161e+06  -6.1554944210860804e+06  5.1623439089042041e+06  -4.5972997097810404e+06  5.8397261915149977e+06  -7.4049930082367994e+06  6.0885866858168403e+06  -5.2494994961653734e+06  3.9325514787991070e+06  -5.6280159318445381e+06  1.9700783472082641e+06  -3.2802961719011595e+06  -1.5546927772040933e+06  -2.4443588016859964e+06  -8.2077775968038179e+06  2.9367586896261778e+06  3.5431313125815966e-01  0.0000000000000000e+00  2.1307401940163262e+07  -1.1237449531781295e+07  1.5973251312758289e+07  -5.5026135624449886e+06  1.3000799380117923e+07  -5.3135899781651786e+06  1.3001963926111031e+07  -6.7870336204263764e+06  1.2420019469110692e+07  -9.0118776580006704e+06  1.2989547738979621e+07  -7.7884208045877349e+06  7.2188512740009082e+06  -4.8943091462056870e+06  6.2191109014591742e+06  -5.2594166287995633e+06  6.5763057691938728e+06  -7.4049929808632080e+06  6.8389765410689656e+06  -5.1660586961407894e+06  5.5350063469404401e+06  -5.7766578697782718e+06  7.0308939077677038e+06  -4.6369872828834206e+06  7.6478609208368380e+06  -6.5733546260179086e+06  1.0978489833399460e+07  -1.1161839523512425e+07  1.6681749442216441e+07  2.5016871888265413e-01  0.0000000000000000e+00  1.3456287462255156e+06  -1.0823157949922036e+07  -5.7413852480365438e+06  -3.8495024387606303e+06  -8.6186404956338573e+06  1.4223480103350242e+06  -1.0312492088012015e+07  2.9850558606629362e+06  -9.5503441983819641e+06  5.0321902627566997e+06  -9.0122570465084258e+06  3.1625756648344151e+06  -3.9262779079404953e+06  2.6190683725016885e+06  -5.6404825603131074e+06  5.2778530066072978e+06  -7.0451097287116461e+06  6.0885866527159037e+06  -5.1660586902029030e+06  4.8186617667289078e+06  -5.6795940298676332e+06  5.0727865890284479e+06  -4.4129578189395247e+06  2.1139023856234299e+06  -4.0693092252060198e+06  2.2245904590487818e+05  -2.1889278441411913e+06  -8.6761240111307949e+06  5.2387756648984170e+06  1.7086860110829463e-01  0.0000000000000000e+00  2.4889799060560022e+07  -1.2902706731506474e+07  1.9171195720360205e+07  -9.5718905503341332e+06  2.1405536253543224e+07  -1.2723226433911271e+07  2.1857584118963603e+07  -1.2263459480992449e+07  1.7803514768721320e+07  -9.5505879774319120e+06  1.2420340224802122e+07  -6.1351644086774653e+06  7.9200443018299825e+06  -6.0480637101160241e+06  8.8735465781945474e+06  -6.6169186586153470e+06  7.4438891090735123e+06  -5.2494994446425252e+06  5.5350063298086599e+06  -5.6795940146250948e+06  5.7449287469576681e+06  -4.6043402738182629e+06  4.4832584105298426e+06  -4.4657187195901433e+06  6.7876147421170818e+06  -5.5373415733083617e+06  7.4264207666818388e+06  -1.0284330848330921e+07  1.7142239147695746e+07  1.1210670022427184e-01  0.0000000000000000e+00  6.7087556534073874e+05  -8.1813763902272088e+06  -1.2070442183004787e+07  5.7422099145933031e+05  -1.4759483580776919e+07  2.8951393375834040e+06  -1.3375456454989623e+07  4.1458514697254659e+06  -1.2263606647357471e+07  2.9852577133743046e+06  -6.7870799209529422e+06  1.6591673104529374e+06  -5.2110459975523315e+06  2.6883224976817695e+06  -6.0549707723189918e+06  3.1751423665341106e+06  -5.4796066650324296e+06  3.9325514259511591e+06  -5.7766578551370837e+06  5.0727865632766234e+06  -4.6043402689970750e+06  3.8328318664974053e+06  -4.2125667244153302e+06  4.0313132247756361e+06  -4.4263523513320601e+06  8.5160500316964142e+04  -2.3267917720790640e+06  -7.5931332152872896e+06  7.5601537203592863e+06  6.9987779013957502e-02  0.0000000000000000e+00  3.6733587988283090e+07  -2.2107611290881839e+07  3.1745453333694752e+07  -2.2769313269933119e+07  3.4878543289074712e+07  -1.9305153757467523e+07  2.6817789285295539e+07  -1.3375541650601976e+07  2.1857704530281316e+07  -1.0312524938826980e+07  1.3001839464750784e+07  -6.4863196357110059e+06  1.0035379161755240e+07  -5.5004287959096460e+06  9.3176462985310536e+06  -5.4281264191880040e+06  8.6081140647530202e+06  -5.6280158134905780e+06  7.0308938751488393e+06  -4.4129577736825235e+06  4.4832584036789006e+06  -4.2125667153033214e+06  4.7104745117787234e+06  -4.5996506619074559e+06  3.6145752077553794e+06  -3.4585623303920408e+06  4.0575065082443999e+06  -9.4028241796443537e+06  1.8410261297168065e+07  4.1025551126101491e-02  0.0000000000000000e+00  -6.3929840219885111e+06  -1.6854467738571782e+06  -2.0278343688436437e+07  3.6019088090669462e+06  -2.1635692859457508e+07  6.7124321665923409e+06  -1.9305200381680589e+07  2.8952080138241714e+06  -1.2723247800762931e+07  1.4222791379858491e+06  -5.3134823416280029e+06  -1.0716826232208116e+06  -4.8978142121941587e+06  2.4361612755397070e+05  -6.3680144512511604e+06  1.8635642664517367e+06  -6.2981931152644642e+06  1.9700782672145448e+06  -4.6369873083435027e+06  2.1139023522750083e+06  -4.4657187241573296e+06  4.0313132031172491e+06  -4.5996506563982042e+06  2.9335788893387080e+06  -2.9803103334644916e+06  5.2122382369067345e+05  -5.2440982054328332e+06  -4.2332081336906748e+06  1.0907571672920275e+07  2.2144570703634955e-02  0.0000000000000000e+00  6.4529462711885132e+07  -3.5801107910416484e+07  4.8921397494937122e+07  -3.3040862565543819e+07  4.0490554405201145e+07  -2.1635718023197114e+07  3.4878580901986696e+07  -1.4759497580616612e+07  2.1405500624559548e+07  -8.6185813983691595e+06  1.3000781171519469e+07  -5.0407804660692401e+06  1.2425840700399753e+07  -5.4488201572258407e+06  1.2117140377938846e+07  -4.6233597840410406e+06  9.6069777099247370e+06  -3.2802960298321685e+06  7.6478609117376739e+06  -4.0693091242774487e+06  6.7876147199955368e+06  -4.4263523004630748e+06  3.6145752028686129e+06  -2.9803103283142787e+06  1.5072693585266059e+06  -5.0415810614878712e+06  1.1145111100914602e+06  -4.5790608485092297e+06  1.9459458367731985e+07  1.0679287569268401e-02  0.0000000000000000e+00  -1.9876362067886721e+07  2.8678605632385169e+06  -3.2759612936560076e+07  1.2629574458104525e+07  -3.3040874809940513e+07  3.6019286082836026e+06  -2.276932141878