<?xml version="1.0"?>
<VTKFile type="UnstructuredGrid"  version="0.1"  >
<UnstructuredGrid>
<Piece  NumberOfPoints="961" NumberOfCells="1800">
<Points>
<DataArray  type="Float64"  NumberOfComponents="3"  format="ascii">-1 -1 0  -0.9333333333333333 -1 0  -0.8666666666666667 -1 0  -0.8 -1 0  -0.7333333333333334 -1 0  -0.6666666666666667 -1 0  -0.6 -1 0  -0.5333333333333333 -1 0  -0.4666666666666667 -1 0  -0.4 -1 0  -0.3333333333333334 -1 0  -0.2666666666666667 -1 0  -0.2 -1 0  -0.1333333333333333 -1 0  -0.06666666666666665 -1 0  0 -1 0  0.06666666666666665 -1 0  0.1333333333333333 -1 0  0.2 -1 0  0.2666666666666666 -1 0  0.3333333333333333 -1 0  0.3999999999999999 -1 0  0.4666666666666666 -1 0  0.5333333333333334 -1 0  0.6000000000000001 -1 0  0.6666666666666667 -1 0  0.7333333333333334 -1 0  0.8 -1 0  0.8666666666666667 -1 0  0.9333333333333333 -1 0  1 -1 0  -1 -0.9333333333333333 0  -0.9333333333333333 -0.9333333333333333 0  -0.8666666666666667 -0.9333333333333333 0  -0.8 -0.9333333333333333 0  -0.7333333333333334 -0.9333333333333333 0  -0.6666666666666667 -0.9333333333333333 0  -0.6 -0.9333333333333333 0  -0.5333333333333333 -0.9333333333333333 0  -0.4666666666666667 -0.9333333333333333 0  -0.4 -0.9333333333333333 0  -0.3333333333333334 -0.9333333333333333 0  -0.2666666666666667 -0.9333333333333333 0  -0.2 -0.9333333333333333 0  -0.1333333333333333 -0.9333333333333333 0  -0.06666666666666665 -0.9333333333333333 0  0 -0.9333333333333333 0  0.06666666666666665 -0.9333333333333333 0  0.1333333333333333 -0.9333333333333333 0  0.2 -0.9333333333333333 0  0.2666666666666666 -0.9333333333333333 0  0.3333333333333333 -0.9333333333333333 0  0.3999999999999999 -0.9333333333333333 0  0.4666666666666666 -0.9333333333333333 0  0.5333333333333334 -0.9333333333333333 0  0.6000000000000001 -0.9333333333333333 0  0.6666666666666667 -0.9333333333333333 0  0.7333333333333334 -0.9333333333333333 0  0.8 -0.9333333333333333 0  0.8666666666666667 -0.9333333333333333 0  0.9333333333333333 -0.9333333333333333 0  1 -0.9333333333333333 0  -1 -0.8666666666666667 0  -0.9333333333333333 -0.8666666666666667 0  -0.8666666666666667 -0.8666666666666667 0  -0.8 -0.8666666666666667 0  -0.7333333333333334 -0.8666666666666667 0  -0.6666666666666667 -0.8666666666666667 0  -0.6 -0.8666666666666667 0  -0.5333333333333333 -0.8666666666666667 0  -0.4666666666666667 -0.8666666666666667 0  -0.4 -0.8666666666666667 0  -0.3333333333333334 -0.8666666666666667 0  -0.2666666666666667 -0.8666666666666667 0  -0.2 -0.8666666666666667 0  -0.1333333333333333 -0.8666666666666667 0  -0.06666666666666665 -0.8666666666666667 0  0 -0.8666666666666667 0  0.06666666666666665 -0.8666666666666667 0  0.1333333333333333 -0.8666666666666667 0  0.2 -0.8666666666666667 0  0.2666666666666666 -0.8666666666666667 0  0.3333333333333333 -0.8666666666666667 0  0.3999999999999999 -0.8666666666666667 0  0.4666666666666666 -0.8666666666666667 0  0.5333333333333334 -0.8666666666666667 0  0.6000000000000001 -0.8666666666666667 0  0.6666666666666667 -0.8666666666666667 0  0.7333333333333334 -0.8666666666666667 0  0.8 -0.8666666666666667 0  0.8666666666666667 -0.8666666666666667 0  0.9333333333333333 -0.8666666666666667 0  1 -0.8666666666666667 0  -1 -0.8 0  -0.9333333333333333 -0.8 0  -0.8666666666666667 -0.8 0  -0.8 -0.8 0  -0.7333333333333334 -0.8 0  -0.6666666666666667 -0.8 0  -0.6 -0.8 0  -0.5333333333333333 -0.8 0  -0.4666666666666667 -0.8 0  -0.4 -0.8 0  -0.3333333333333334 -0.8 0  -0.2666666666666667 -0.8 0  -0.2 -0.8 0  -0.1333333333333333 -0.8 0  -0.06666666666666665 -0.8 0  0 -0.8 0  0.06666666666666665 -0.8 0  0.1333333333333333 -0.8 0  0.2 -0.8 0  0.2666666666666666 -0.8 0  0.3333333333333333 -0.8 0  0.3999999999999999 -0.8 0  0.4666666666666666 -0.8 0  0.5333333333333334 -0.8 0  0.6000000000000001 -0.8 0  0.6666666666666667 -0.8 0  0.7333333333333334 -0.8 0  0.8 -0.8 0  0.8666666666666667 -0.8 0  0.9333333333333333 -0.8 0  1 -0.8 0  -1 -0.7333333333333334 0  -0.9333333333333333 -0.7333333333333334 0  -0.8666666666666667 -0.7333333333333334 0  -0.8 -0.7333333333333334 0  -0.7333333333333334 -0.7333333333333334 0  -0.6666666666666667 -0.7333333333333334 0  -0.6 -0.7333333333333334 0  -0.5333333333333333 -0.7333333333333334 0  -0.4666666666666667 -0.7333333333333334 0  -0.4 -0.7333333333333334 0  -0.3333333333333334 -0.7333333333333334 0  -0.2666666666666667 -0.7333333333333334 0  -0.2 -0.7333333333333334 0  -0.1333333333333333 -0.7333333333333334 0  -0.06666666666666665 -0.7333333333333334 0  0 -0.7333333333333334 0  0.06666666666666665 -0.7333333333333334 0  0.1333333333333333 -0.7333333333333334 0  0.2 -0.7333333333333334 0  0.2666666666666666 -0.7333333333333334 0  0.3333333333333333 -0.7333333333333334 0  0.3999999999999999 -0.7333333333333334 0  0.4666666666666666 -0.7333333333333334 0  0.5333333333333334 -0.7333333333333334 0  0.6000000000000001 -0.7333333333333334 0  0.6666666666666667 -0.7333333333333334 0  0.7333333333333334 -0.7333333333333334 0  0.8 -0.7333333333333334 0  0.8666666666666667 -0.7333333333333334 0  0.9333333333333333 -0.7333333333333334 0  1 -0.7333333333333334 0  -1 -0.6666666666666667 0  -0.9333333333333333 -0.6666666666666667 0  -0.8666666666666667 -0.6666666666666667 0  -0.8 -0.6666666666666667 0  -0.7333333333333334 -0.6666666666666667 0  -0.6666666666666667 -0.6666666666666667 0  -0.6 -0.6666666666666667 0  -0.5333333333333333 -0.6666666666666667 0  -0.4666666666666667 -0.6666666666666667 0  -0.4 -0.6666666666666667 0  -0.3333333333333334 -0.6666666666666667 0  -0.2666666666666667 -0.6666666666666667 0  -0.2 -0.6666666666666667 0  -0.1333333333333333 -0.6666666666666667 0  -0.06666666666666665 -0.6666666666666667 0  0 -0.6666666666666667 0  0.06666666666666665 -0.6666666666666667 0  0.1333333333333333 -0.6666666666666667 0  0.2 -0.6666666666666667 0  0.2666666666666666 -0.6666666666666667 0  0.3333333333333333 -0.6666666666666667 0  0.3999999999999999 -0.6666666666666667 0  0.4666666666666666 -0.6666666666666667 0  0.5333333333333334 -0.6666666666666667 0  0.6000000000000001 -0.6666666666666667 0  0.6666666666666667 -0.6666666666666667 0  0.7333333333333334 -0.6666666666666667 0  0.8 -0.6666666666666667 0  0.8666666666666667 -0.6666666666666667 0  0.9333333333333333 -0.6666666666666667 0  1 -0.6666666666666667 0  -1 -0.6 0  -0.9333333333333333 -0.6 0  -0.8666666666666667 -0.6 0  -0.8 -0.6 0  -0.7333333333333334 -0.6 0  -0.6666666666666667 -0.6 0  -0.6 -0.6 0  -0.5333333333333333 -0.6 0  -0.4666666666666667 -0.6 0  -0.4 -0.6 0  -0.3333333333333334 -0.6 0  -0.2666666666666667 -0.6 0  -0.2 -0.6 0  -0.1333333333333333 -0.6 0  -0.06666666666666665 -0.6 0  0 -0.6 0  0.06666666666666665 -0.6 0  0.1333333333333333 -0.6 0  0.2 -0.6 0  0.2666666666666666 -0.6 0  0.3333333333333333 -0.6 0  0.3999999999999999 -0.6 0  0.4666666666666666 -0.6 0  0.5333333333333334 -0.6 0  0.6000000000000001 -0.6 0  0.6666666666666667 -0.6 0  0.7333333333333334 -0.6 0  0.8 -0.6 0  0.8666666666666667 -0.6 0  0.9333333333333333 -0.6 0  1 -0.6 0  -1 -0.5333333333333333 0  -0.9333333333333333 -0.5333333333333333 0  -0.8666666666666667 -0.5333333333333333 0  -0.8 -0.5333333333333333 0  -0.7333333333333334 -0.5333333333333333 0  -0.6666666666666667 -0.5333333333333333 0  -0.6 -0.5333333333333333 0  -0.5333333333333333 -0.5333333333333333 0  -0.4666666666666667 -0.5333333333333333 0  -0.4 -0.5333333333333333 0  -0.3333333333333334 -0.5333333333333333 0  -0.2666666666666667 -0.5333333333333333 0  -0.2 -0.5333333333333333 0  -0.1333333333333333 -0.5333333333333333 0  -0.06666666666666665 -0.5333333333333333 0  0 -0.5333333333333333 0  0.06666666666666665 -0.5333333333333333 0  0.1333333333333333 -0.5333333333333333 0  0.2 -0.5333333333333333 0  0.2666666666666666 -0.5333333333333333 0  0.3333333333333333 -0.5333333333333333 0  0.3999999999999999 -0.5333333333333333 0  0.4666666666666666 -0.5333333333333333 0  0.5333333333333334 -0.5333333333333333 0  0.6000000000000001 -0.5333333333333333 0  0.6666666666666667 -0.5333333333333333 0  0.7333333333333334 -0.5333333333333333 0  0.8 -0.5333333333333333 0  0.8666666666666667 -0.5333333333333333 0  0.9333333333333333 -0.5333333333333333 0  1 -0.5333333333333333 0  -1 -0.4666666666666667 0  -0.9333333333333333 -0.4666666666666667 0  -0.8666666666666667 -0.4666666666666667 0  -0.8 -0.4666666666666667 0  -0.7333333333333334 -0.4666666666666667 0  -0.6666666666666667 -0.4666666666666667 0  -0.6 -0.4666666666666667 0  -0.5333333333333333 -0.4666666666666667 0  -0.4666666666666667 -0.4666666666666667 0  -0.4 -0.4666666666666667 0  -0.3333333333333334 -0.4666666666666667 0  -0.2666666666666667 -0.4666666666666667 0  -0.2 -0.4666666666666667 0  -0.1333333333333333 -0.4666666666666667 0  -0.06666666666666665 -0.4666666666666667 0  0 -0.4666666666666667 0  0.06666666666666665 -0.4666666666666667 0  0.1333333333333333 -0.4666666666666667 0  0.2 -0.4666666666666667 0  0.2666666666666666 -0.4666666666666667 0  0.3333333333333333 -0.4666666666666667 0  0.3999999999999999 -0.4666666666666667 0  0.4666666666666666 -0.4666666666666667 0  0.5333333333333334 -0.4666666666666667 0  0.6000000000000001 -0.4666666666666667 0  0.6666666666666667 -0.4666666666666667 0  0.7333333333333334 -0.4666666666666667 0  0.8 -0.4666666666666667 0  0.8666666666666667 -0.4666666666666667 0  0.9333333333333333 -0.4666666666666667 0  1 -0.4666666666666667 0  -1 -0.4 0  -0.9333333333333333 -0.4 0  -0.8666666666666667 -0.4 0  -0.8 -0.4 0  -0.7333333333333334 -0.4 0  -0.6666666666666667 -0.4 0  -0.6 -0.4 0  -0.5333333333333333 -0.4 0  -0.4666666666666667 -0.4 0  -0.4 -0.4 0  -0.3333333333333334 -0.4 0  -0.2666666666666667 -0.4 0  -0.2 -0.4 0  -0.1333333333333333 -0.4 0  -0.06666666666666665 -0.4 0  0 -0.4 0  0.06666666666666665 -0.4 0  0.1333333333333333 -0.4 0  0.2 -0.4 0  0.2666666666666666 -0.4 0  0.3333333333333333 -0.4 0  0.3999999999999999 -0.4 0  0.4666666666666666 -0.4 0  0.5333333333333334 -0.4 0  0.6000000000000001 -0.4 0  0.6666666666666667 -0.4 0  0.7333333333333334 -0.4 0 
[...]
<PointData  Scalars="f_24"> 
<DataArray  type="Float64"  Name="f_24"  format="ascii">0.0000000000000000e+00  0.0000000000000000e+00  0.0000000000000000e+00  0.0000000000000000e+00  0.0000000000000000e+00  0.0000000000000000e+00  0.0000000000000000e+00  0.0000000000000000e+00  0.0000000000000000e+00  0.0000000000000000e+00  0.0000000000000000e+00  0.0000000000000000e+00  0.0000000000000000e+00  0.0000000000000000e+00  0.0000000000000000e+00  0.0000000000000000e+00  0.0000000000000000e+00  0.0000000000000000e+00  0.0000000000000000e+00  0.0000000000000000e+00  0.0000000000000000e+00  0.0000000000000000e+00  0.0000000000000000e+00  0.0000000000000000e+00  0.0000000000000000e+00  -1.5966524591989616e-07  0.0000000000000000e+00  1.9579969819089201e-07  0.0000000000000000e+00  0.0000000000000000e+00  1.1331525655484803e+01  0.0000000000000000e+00  1.0362187902433166e+07  1.1336378961222684e+07  1.6496597970798368e+07  1.1913439840568973e+07  1.6306210452548435e+07  9.3508490115908105e+06  1.5530510860631896e+07  6.6762282700185347e+06  1.4543548600886928e+07  4.8142331189461974e+06  1.4194964957480537e+07  2.9495412094919560e+06  1.4786491374952948e+07  1.5539395283047280e+06  1.5454708892964158e+07  1.0659584808825976e+06  1.6420396659812937e+07  1.0158296641768977e+06  1.7980707711581245e+07  1.6242831382406161e+06  2.0884300507345665e+07  1.0322916922172880e+06  3.0529856316814646e+07  -4.8167781230672831e+06  5.3206002272631019e+07  -1.5955537017579237e+07  8.8113360674693286e+07  -9.8083925590699129e+06  1.9156959700543875e+08  9.8945343174530205e+00  0.0000000000000000e+00  1.1336378943345392e+07  1.2490146330553824e+07  5.0894797097155619e+06  2.3331960756139504e+06  -3.2399790530729340e+06  -2.9639616724901218e+06  -7.2246014288327964e+06  -5.7829983202965902e+06  -8.0317079615304759e+06  -6.7598786501367670e+06  -8.8358819617275242e+06  -6.4509997528390838e+06  -9.1636656204732675e+06  -6.9165174409419438e+06  -8.6630582577489037e+06  -7.5853934940610547e+06  -8.7706168452520408e+06  -7.9047021300015924e+06  -8.9043208725848179e+06  -8.5263914650562685e+06  -1.0186289948676685e+07  -6.2777763422679910e+06  -1.7641807728995901e+07  -8.9463079021081422e+05  -2.8819041828901641e+07  2.8207976011963622e+06  -2.4924743170151372e+07  -1.5351828294530166e+07  -9.8083996920245010e+06  8.5987533743983686e+00  7.3680447253910629e-09  1.6496597963140592e+07  5.0894797128686262e+06  1.9193436765928199e+06  -3.8556918781682444e+06  1.3184861834770823e+06  -3.9995469569916409e+06  3.4941817398850871e+06  -1.8478580937247798e+06  6.0376395021734498e+06  -1.9156194571316841e+06  8.8031967767462172e+06  -2.2315180957888160e+06  9.8182660688112453e+06  -1.9984063098540038e+06  1.0758409614364585e+07  -2.9825973714270596e+06  1.2412671603744162e+07  -3.9425506650355826e+06  1.2895091219721913e+07  -4.8224387862601290e+06  1.5654514761752686e+07  -9.8278249550434109e+06  2.6157580479485523e+07  -1.6320868425863147e+07  4.0443126109478027e+07  -2.6357478357291259e+07  4.8375021460987501e+07  -2.4924742679596387e+07  8.8113362060245708e+07  7.4346141443994442e+00  0.0000000000000000e+00  1.1913439785092007e+07  2.3331960929512749e+06  -3.8556918833450307e+06  6.1927827600205271e+05  -3.9543287366289403e+06  4.1539133332283603e+05  -2.9970422126449933e+06  -2.0779098614317886e+05  -4.8839287463847594e+06  -2.0925455954969293e+05  -5.7934027380919056e+06  -1.6909980810896293e+06  -5.4922611231441544e+06  -2.4548528390841512e+06  -6.2383103022132395e+06  -2.2321873920631683e+06  -6.3125095099977721e+06  -3.4495701752258572e+06  -4.9095203896247670e+06  -3.5347800903297965e+06  -8.1776665286749620e+06  2.0218611215947592e+05  -1.8799890920924533e+07  2.9403204888980919e+06  -2.6884372181556135e+07  1.0681919956365386e+07  -2.6357485861641884e+07  2.8208026659140862e+06  -1.5955542989403548e+07  6.3928830468405238e+00  -9.3389057600357248e-09  1.6306210436888123e+07  -3.2399790201315656e+06  1.3184861892329652e+06  -3.9543287398946229e+06  1.1646115623856799e+06  -2.6945920300431629e+06  2.5961202510752655e+06  -4.0308865964607964e+06  5.1500463778027371e+06  -3.7168399710529624e+06  5.9065284881367348e+06  -3.0120080207375991e+06  7.5618777662056396e+06  -4.0750919264127128e+06  9.6363772985698376e+06  -4.7500888879020279e+06  9.8715683560664374e+06  -4.4504351443502754e+06  1.0294062249432597e+07  -7.4352454369778177e+06  1.7126852898671333e+07  -1.2481217167394498e+07  2.8205112162850682e+07  -1.7958018956820518e+07  3.3087682578374010e+07  -2.6884381246771730e+07  4.0443134648357801e+07  -2.8819042753120046e+07  5.3206001799088947e+07  5.4646632212021631e+00  0.0000000000000000e+00  9.3508489309172314e+06  -2.9639616232052133e+06  -3.9995470031001484e+06  4.1539134356980398e+05  -2.6945920342698968e+06  2.0200358700085492e+06  -4.1744217557928255e+06  2.9253123719934793e+06  -3.9753512714670906e+06  1.4695048456617827e+06  -4.0095389340485767e+06  1.4360122330942033e+06  -5.3100224179902710e+06  1.3863407905926460e+06  -5.3494718553749491e+06  5.9285874558146876e+04  -4.1640712938095606e+06  -1.0551065796871206e+06  -4.5634569294163240e+06  9.0537057930774486e+05  -1.0731445139405727e+07  2.0025944765842278e+06  -1.6204297741430305e+07  5.1259592116456730e+06  -1.7958040676250201e+07  2.9403372715277676e+06  -1.6320874817745311e+07  -8.9463151484611596e+05  -4.8167801555930050e+06  4.6413929084865764e+00  3.7429276254515650e-09  1.5530510852317819e+07  -7.2246013801711267e+06  3.4941817352994340e+06  -2.9970421941778455e+06  2.5961202550944104e+06  -4.1744217603256968e+06  3.4974261923920410e+06  -3.7272706631976562e+06  3.4695608812268307e+06  -3.7544928985786536e+06  5.6559193051163200e+06  -4.6824899140190650e+06  6.9891814508432215e+06  -4.4950760705401246e+06  7.5801542289179917e+06  -4.5546667638663948e+06  8.1566009032324124e+06  -5.3868730023175199e+06  1.0542628333425196e+07  -8.5871499547931962e+06  1.7694026958859000e+07  -1.1226985125333857e+07  2.1604260010753103e+07  -1.6204335469893530e+07  2.8205143258888278e+07  -1.8799897181480728e+07  2.6157574943412572e+07  -1.7641801736563385e+07  3.0529855350987311e+07  3.9148462604401506e+00  0.0000000000000000e+00  6.6762281633373592e+06  -5.7829982507172385e+06  -1.8478581696277098e+06  -2.0779095876448063e+05  -4.0308866379722520e+06  2.9253123896702277e+06  -3.7272706706464789e+06  2.9558774151670397e+06  -3.8811311272127503e+06  4.0867000393712227e+06  -4.7706388859849339e+06  3.1937438788258918e+06  -4.5053786700574616e+06  2.5842796607109285e+06  -4.9718100638112575e+06  2.1855342238138299e+06  -4.2866797915270785e+06  1.3310851628130630e+06  -5.5992509364216272e+06  2.3756831603367468e+06  -1.0154382568023741e+07  3.2112595741313817e+06  -1.1227055441277737e+07  2.0026510154702144e+06  -1.2481229667441076e+07  2.0217280312916348e+05  -9.8278148107954916e+06  -6.2777774825030183e+06  1.0322875681883245e+06  3.2771331777175914e+00  1.9463624146882604e-08  1.4543548601584168e+07  -8.0317078905246621e+06  6.0376394861959685e+06  -4.8839287200415609e+06  5.1500463962707464e+06  -3.9753512678766721e+06  3.4695608868808574e+06  -3.8811311311707194e+06  4.6466955311329495e+06  -4.6786752137862798e+06  4.5179882890773667e+06  -4.3053808960843692e+06  6.0901533753277641e+06  -5.4201844816195471e+06  7.2627544132934175e+06  -4.9551413593475176e+06  6.4802641011694409e+06  -5.0313335747953113e+06  1.0153038835328363e+07  -7.8498406068709251e+06  1.4517302882519517e+07  -1.0154502771710565e+07  1.7694125688025314e+07  -1.0731462477671070e+07  1.7126824008334599e+07  -8.1776409805760430e+06  1.5654510517877277e+07  -1.0186294047786959e+07  2.0884303209995616e+07  2.7206992441385554e+00  0.0000000000000000e+00  4.8142329909834843e+06  -6.7598785666412190e+06  -1.9156195808191213e+06  -2.0925448959948655e+05  -3.7168400529768029e+06  1.4695048726619186e+06  -3.7544929355060123e+06  4.0867000604164791e+06  -4.6786752262537805e+06  3.9341981242607618e+06  -4.2341506112843156e+06  4.9830653189584240e+06  -5.7686904157489510e+06  4.3209989865773460e+06  -4.6191916135174576e+06  2.1442917633068506e+06  -3.2156597659557667e+06  2.5874145424651862e+06  -7.3832130299980361e+06  4.1077645356720267e+06  -7.8500405028240634e+06  2.3758486061040005e+06  -8.5871775115776379e+06  9.0531469169321773e+05  -7.4351980096193189e+06  -3.5347879895214350e+06  -4.8224517647704389e+06  -8.5263825716396589e+06  1.6242804253201513e+06  2.2383260554044067e+00  0.0000000000000000e+00  1.4194964970658606e+07  -8.8358818852185905e+06  8.8031967778219935e+06  -5.7934027037500916e+06  5.9065284968043892e+06  -4.0095389137606779e+06  5.6559193320714738e+06  -4.7706388980806330e+06  4.5179883031445229e+06  -4.2341506161558712e+06  5.5982345266118003e+06  -6.0624688638145365e+06  5.3847735748159913e+06  -4.3063411109495964e+06  5.0928400573496865e+06  -4.0066437806187905e+06  5.9100863964127619e+06  -6.3768002659171885e+06  1.0633722555911403e+07  -7.3835235363557106e+06  1.0153301587414388e+07  -5.5992888695047488e+06  1.0542526772463746e+07  -4.5633688664781079e+06  1.0294047645729762e+07  -4.9095439855864132e+06  1.2895109245243838e+07  -8.9043218821163941e+06  1.7980704663874313e+07  1.8231305616647344e+00  0.0000000000000000e+00  2.9495410434576217e+06  -6.4509996361253271e+06  -2.2315182735704491e+06  -1.6909979911338000e+06  -3.0120081351819853e+06  1.4360122976877687e+06  -4.6824900104830517e+06  3.1937439218960498e+06  -4.3053809381725118e+06  4.9830653460223638e+06  -6.0624688862147946e+06  4.7814935253979731e+06  -3.7645991284921416e+06  4.2273752646547556e+06  -5.0399015851244200e+06  3.6154938638717160e+06  -4.7216752562463144e+06  4.3805493333527530e+06  -6.3772522858319618e+06  2.5878063065961180e+06  -5.0313848643937306e+06  1.3309135083824543e+06  -5.3867248689553225e+06  -1.0551297688172921e+06  -4.4504819825075185e+06  -3.4495344603708684e+06  -3.9425547024954692e+06  -7.9047104643928697e+06  1.0158321465792500e+06  1.4685657249508304e+00  -7.7348865808364104e-07  1.4786491416589363e+07  -9.1636655411378164e+06  9.8182660730775762e+06  -5.4922610625444846e+06  7.5618777858908689e+06  -5.3100224126357418e+06  6.9891814977037245e+06  -4.5053786716283187e+06  6.0901534177345252e+06  -5.7686904528735382e+06  5.3847736107184794e+06  -3.7645991365804602e+06  4.8191352237369614e+06  -6.3254848908968456e+06  5.4560061860730490e+06  -3.2759452572101178e+06  4.6458185594447553e+06  -4.7222805219522519e+06  5.9106284873056952e+06  -3.2157221439441317e+06  6.4799947217414910e+06  -4.2864445113324486e+06  8.1565671207804456e+06  -4.1641534702877812e+06  9.8716324622586146e+06  -6.3125140107714655e+06  1.2412652049955841e+07  -8.7706057191874310e+06  1.6420396972460944e+07  1.1684201904589460e+00  0.0000000000000000e+00  1.5539393063037975e+06  -6.9165172992448825e+06  -1.9984065315335989e+06  -2.4548527168753170e+06  -4.0750921181678521e+06  1.3863409110796626e+06  -4.4950762179903686e+06  2.5842797431814577e+06  -5.4201846076063551e+06  4.3209990666580442e+06  -4.3063411719829990e+06  4.2273752964540841e+06  -6.3254849318253445e+06  5.4336489332381533e+06  -1.9868446479785014e+06  6.1134974317443138e+05  -3.2766861343099731e+06  3.6161833097537267e+06  -4.0067153178651766e+06  2.1439038445581449e+06  -4.9547983146192795e+06  2.1854906652340521e+06  -4.5548049129585363e+06  5.9393818231462821e+04  -4.7500965804397603e+06  -2.2322246530830059e+06  -2.9825764084076136e+06  -7.5853914620491434e+06  1.0659518886181838e+06  9.1681835229364450e-01  3.7488288532471349e-09  1.5454708962994978e+07  -8.6630581535739768e+06  1.0758409630431032e+07  -6.2383102510288609e+06  9.6363773650146369e+06  -5.3494718578980947e+06  7.5801542983195530e+06  -4.9718100972517692e+06  7.2627545187396305e+06  -4.6191916664569629e+06  5.0928401354308734e+06  -5.0399016747999936e+06  5.4560063037380781e+06  -1.9868446975930429e+06  -2.0304186655344442e+05  -1.9876656900974000e+06  5.4568054549888046e+06  -5.0399776563060563e+06  5.0923320536490390e+06  -4.6187313040536260e+06  7.2627039426718056e+06  -4.9720214743452352e+06  7.5803211417636899e+06  -5.3494797392265629e+06  9.6363111275630277e+06  -6.2382702573156981e+06  1.0758413466557093e+07  -8.6630725420281589e+06  1.5454713785728199e+07  7.0822035346780021e-01  0.0000000000000000e+00  1.0659581872656930e+06  -7.5853933145675762e+06  -2.9825976893118294e+06  -2.2321871891689319e+06  -4.7500891785077443e+06  5.9286049781960442e+04  -4.5546670058348412e+06  2.1855344064199040e+06  -4.9551415960766831e+06  2.1442919192494634e+06  -4.0066439829710783e+06  3.6154940461278693e+06  -3.2759454007212743e+06  6.1134974313719128e+05  -1.9876656404610318e+06  5.4344890152311949e+06  -6.3255628275515782e+06  4.2267757000340819e+06  -4.3057795289848736e+06  4.3209461112655010e+06  -5.4204806090051532e+06  2.5845162834861092e+06  -4.4950828832633104e+06  1.3862338247944438e+06  -4.0750269231094914e+06  -2.4548445902484865e+06  -1.9984362825587420e+06  -6.9165053395004719e+06  1.5539409458814207e+06  5.3742208590259777e-01  7.7033590955826834e-09  1.6420396769920358e+07  -8.7706167320527174e+06  1.2412671681167988e+07  -6.3125094864052655e+06  9.8715684708090574e+06  -4.1640713208438400e+06  8.1566010599369481e+06  -4.2866798973132921e+06  6.4802642772912942e+06  -3.2156598633641861e+06  5.9100865596111268e+06  -4.7216753400690677e+06  4.6458185593824573e+06  -3.2766859907136126e+06  5.4568053373353295e+06  -6.3255627866283925e+06  4.8185011446444057e+06  -3.7639777000670312e+06  5.3847212980824020e+06  -5.7690627475008536e+06  6.0904580750838248e+06  -4.5053796006335821e+06  6.9890231711472310e+06  -5.3099238800939070e+06  7.5618925096984599e+06  -5.4923113707356229e+06  9.8182872846944835e+06  -9.1636584205686841e+06  1.4786483515875412e+07  3.9955518860765848e-01  0.0000000000000000e+00  1.0158292390316590e+06  -7.9047018529105373e+06  -3.9425511402011588e+06  -3.4495698831510572e+06  -4.4504355505167320e+06  -1.0551063107991978e+06  -5.3868733798259972e+06  1.3310854095957291e+06  -5.0313338467541542e+06  2.5874146791755552e+06  -6.3768004289427651e+06  4.3805493333108872e+06  -4.7222804380000932e+06  3.6161831273837122e+06  -5.0399775666742157e+06  4.2267756682147067e+06  -3.7639776919781012e+06  4.7814419563767705e+06  -6.0628875440695826e+06  4.9834205331131443e+06  -4.3053746844320279e+06  3.1935328643708415e+06  -4.6823565910784844e+06  1.4360371343554845e+06  -3.0120871327812746e+06  -1.6909639738626385e+06  -2.2315048389947722e+06  -6.4510184409088865e+06  2.9495448286092435e+06  2.9008705678041102e-01  -1.2344783606782194e-08  1.7980707899014600e+07  -8.9043207482598163e+06  1.2895091350333504e+07  -4.9095203493383331e+06  1.0294062401955808e+07  -4.5634569604720436e+06  1.0542628502770774e+07  -5.5992509487416754e+06  1.0153038904741792e+07  -7.3832129744140906e+06  1.0633722555797517e+07  -6.3772521227606907e+06  5.9106283240474891e+06  -4.0067151153645371e+06  5.0923319756848114e+06  -4.3057794678942645e+06  5.3847212622088362e+06  -6.0628875216669487e+06  5.5986084287830526e+06  -4.2341387481084224e+06  4.5177365171907032e+06  -4.7704748946472937e+06  5.6559559541223543e+06  -4.0096492695810511e+06  5.9065767204387318e+06  -5.7933787639994193e+06  8.8031628017592616e+06  -8.8358727971097827e+06  1.4194970125166208e+07  2.0482082360734946e-01  0.0000000000000000e+00  1.6242825051804536e+06  -8.5263910853711031e+06  -4.8224394037839565e+06  -3.5347797652160213e+06  -7.4352459166372744e+06  9.0537083001850313e+05  -8.5871502853769511e+06  2.3756832515471410e+06  -7.8498407597533213e+06  4.1077645352428271e+06  -7.3835235914442930e+06  2.5878061698730038e+06  -3.2157220466121696e+06  2.1439036883905660e+06  -4.6187312513234206e+06  4.3209460310539054e+06  -5.7690627104466725e+06  4.9834205060157003e+06  -4.2341387432376947e+06  3.9339309315244542e+06  -4.6784937338675689e+06  4.0867467868149672e+06  -3.7546322204574458e+06  1.4695668064115723e+06  -3.7168048327492806e+06  -2.0930580503554596e+05  -1.9156066091527308e+06  -6.7598654055922870e+06  4.8142233078001374e+06  1.3989537846277542e-01  0.0000000000000000e+00  2.0884300740966376e+07  -1.0186289686654391e+07  1.5654514866166962e+07  -8.1776663908726089e+06  1.7126853036218625e+07  -1.0731445060562650e+07  1.7694027030787989e+07  -1.0154382424890237e+07  1.4517302882296873e+07  -7.8500403491569497e+06  1.0153301517284380e+07  -5.0313845923900846e+06  6.4799945458918242e+06  -4.9547980774974776e+06  7.2627038375811921e+06  -5.4204804827516973e+06  6.0904580328332512e+06  -4.3053746422584923e+06  4.5177365031566340e+06  -4.6784937213966344e+06  4.6467462619211748e+06  -3.8812874936042046e+06  3.4696325464052372e+06  -3.9753045844925013e+06  5.1499774076284496e+06  -4.8839108268118864e+06  6.0376617285546353e+06  -8.0317270283536017e+06  1.4543550857177157e+07  9.1785344978641006e-02  0.0000000000000000e+00  1.0322908143272253e+06  -6.2777758953695688e+06  -9.8278257201206852e+06  2.0218642830206137e+05  -1.2481217685910335e+07  2.0025946303555341e+06  -1.1226985405493068e+07  3.2112595733324918e+06  -1.0154502914516212e+07  2.3758485145707033e+06  -5.5992888563952288e+06  1.3309132613876867e+06  -4.2864444061249448e+06  2.1854904819200234e+06  -4.9720214415370775e+06  2.5845162005170947e+06  -4.5053795993991783e+06  3.1935328211099505e+06  -4.7704748826510431e+06  4.0867467657352607e+06  -3.8812874896495743e+06  2.9559526190405912e+06  -3.7272171890391964e+06  2.9252302213578387e+06  -4.0308657555382052e+06  -2.0775882816286202e+05  -1.8478884657786726e+06  -5.7829946096770316e+06  6.6762349297125526e+06  5.7301147018352823e-02  1.1029025241772487e-08  3.0529856485978920e+07  -1.7641807224338539e+07  2.6157580618482184e+07  -1.8799890712133344e+07  2.8205112316074092e+07  -1.6204297519571697e+07  2.1604260008983400e+07  -1.1227055157755874e+07  1.7694125615240697e+07  -8.5871771813375205e+06  1.0542526602422617e+07  -5.3867244908556240e+06  8.1565669651820911e+06  -4.5548046697222209e+06  7.5803210735057397e+06  -4.4950827348965425e+06  6.9890231249479614e+06  -4.6823564941915739e+06  5.6559559274005275e+06  -3.7546321834171289e+06  3.4696325407873793e+06  -3.7272171815869468e+06  3.4973390701816846e+06  -4.1743989406782468e+06  2.5961598057979848e+06  -2.9970809171513845e+06  3.4941851789688296e+06  -7.2245857812330639e+06  1.5530502616160668e+07  3.3588880368912333e-02  0.0000000000000000e+00  -4.8167794249269860e+06  -8.9463013236032415e+05  -1.6320869452080935e+07  2.9403207601933777e+06  -1.7958019507919226e+07  5.1259592125864616e+06  -1.6204335692266965e+07  2.0026508576943541e+06  -1.0731462554259565e+07  9.0531444211425714e+05  -4.5633688351011677e+06  -1.0551300391131213e+06  -4.1641534454155411e+06  5.9393640657967924e+04  -5.3494797388469614e+06  1.3862337025631599e+06  -5.3099238867510799e+06  1.4360370688773813e+06  -4.0096492904091729e+06  1.4695667791224173e+06  -3.9753045882152542e+06  2.9252302036417541e+06  -4.1743989361490933e+06  2.0200782699144136e+06  -2.6946360862924084e+06  4.1539468715735606e+05  -3.9995250683467942e+06  -2.9639759200136564e+06  9.3508480671375338e+06  1.8130441048775668e-02  0.0000000000000000e+00  5.3206002277951159e+07  -2.8819041040085357e+07  4.0443126357790716e+07  -2.6884371727068618e+07  3.3087682568446357e+07  -1.7958040110258427e+07  2.8205143110871762e+07  -1.2481229148045653e+07  1.7126823865628406e+07  -7.4351975319066886e+06  1.0294047493988449e+07  -4.4504815729833785e+06  9.8716323519879151e+06  -4.7500962851877147e+06  9.6363110653232727e+06  -4.0750267278919960e+06  7.5618924926502109e+06  -3.0120870164768049e+06  5.9065767129794005e+06  -3.7168047501174449e+06  5.1499773895262536e+06  -4.0308657138691549e+06  2.5961598018230698e+06  -2.6946360820618365e+06  1.1646147671755361e+06  -3.9543025088274051e+06  1.3184672470211303e+06  -3.2399802056164686e+06  1.6306217367657118e+07  8.7434611539234514e-03  0.0000000000000000e+00  -1.5955539252565872e+07  2.8207984964969200e+06  -2.6357479464739446e+07  1.0681919942561844e+07  -2.6884381751951404e+07  2.9403369703810220e+06  -1.8799897