<?xml version="1.0"?>
<VTKFile type="UnstructuredGrid"  version="0.1"  >
<UnstructuredGrid>
<Piece  NumberOfPoints="961" NumberOfCells="1800">
<Points>
<DataArray  type="Float64"  NumberOfComponents="3"  format="ascii">-1 -1 0  -0.9333333333333333 -1 0  -0.8666666666666667 -1 0  -0.8 -1 0  -0.7333333333333334 -1 0  -0.6666666666666667 -1 0  -0.6 -1 0  -0.5333333333333333 -1 0  -0.4666666666666667 -1 0  -0.4 -1 0  -0.3333333333333334 -1 0  -0.2666666666666667 -1 0  -0.2 -1 0  -0.1333333333333333 -1 0  -0.06666666666666665 -1 0  0 -1 0  0.06666666666666665 -1 0  0.1333333333333333 -1 0  0.2 -1 0  0.2666666666666666 -1 0  0.3333333333333333 -1 0  0.3999999999999999 -1 0  0.4666666666666666 -1 0  0.5333333333333334 -1 0  0.6000000000000001 -1 0  0.6666666666666667 -1 0  0.7333333333333334 -1 0  0.8 -1 0  0.8666666666666667 -1 0  0.9333333333333333 -1 0  1 -1 0  -1 -0.9333333333333333 0  -0.9333333333333333 -0.9333333333333333 0  -0.8666666666666667 -0.9333333333333333 0  -0.8 -0.9333333333333333 0  -0.7333333333333334 -0.9333333333333333 0  -0.6666666666666667 -0.9333333333333333 0  -0.6 -0.9333333333333333 0  -0.5333333333333333 -0.9333333333333333 0  -0.4666666666666667 -0.9333333333333333 0  -0.4 -0.9333333333333333 0  -0.3333333333333334 -0.9333333333333333 0  -0.2666666666666667 -0.9333333333333333 0  -0.2 -0.9333333333333333 0  -0.1333333333333333 -0.9333333333333333 0  -0.06666666666666665 -0.9333333333333333 0  0 -0.9333333333333333 0  0.06666666666666665 -0.9333333333333333 0  0.1333333333333333 -0.9333333333333333 0  0.2 -0.9333333333333333 0  0.2666666666666666 -0.9333333333333333 0  0.3333333333333333 -0.9333333333333333 0  0.3999999999999999 -0.9333333333333333 0  0.4666666666666666 -0.9333333333333333 0  0.5333333333333334 -0.9333333333333333 0  0.6000000000000001 -0.9333333333333333 0  0.6666666666666667 -0.9333333333333333 0  0.7333333333333334 -0.9333333333333333 0  0.8 -0.9333333333333333 0  0.8666666666666667 -0.9333333333333333 0  0.9333333333333333 -0.9333333333333333 0  1 -0.9333333333333333 0  -1 -0.8666666666666667 0  -0.9333333333333333 -0.8666666666666667 0  -0.8666666666666667 -0.8666666666666667 0  -0.8 -0.8666666666666667 0  -0.7333333333333334 -0.8666666666666667 0  -0.6666666666666667 -0.8666666666666667 0  -0.6 -0.8666666666666667 0  -0.5333333333333333 -0.8666666666666667 0  -0.4666666666666667 -0.8666666666666667 0  -0.4 -0.8666666666666667 0  -0.3333333333333334 -0.8666666666666667 0  -0.2666666666666667 -0.8666666666666667 0  -0.2 -0.8666666666666667 0  -0.1333333333333333 -0.8666666666666667 0  -0.06666666666666665 -0.8666666666666667 0  0 -0.8666666666666667 0  0.06666666666666665 -0.8666666666666667 0  0.1333333333333333 -0.8666666666666667 0  0.2 -0.8666666666666667 0  0.2666666666666666 -0.8666666666666667 0  0.3333333333333333 -0.8666666666666667 0  0.3999999999999999 -0.8666666666666667 0  0.4666666666666666 -0.8666666666666667 0  0.5333333333333334 -0.8666666666666667 0  0.6000000000000001 -0.8666666666666667 0  0.6666666666666667 -0.8666666666666667 0  0.7333333333333334 -0.8666666666666667 0  0.8 -0.8666666666666667 0  0.8666666666666667 -0.8666666666666667 0  0.9333333333333333 -0.8666666666666667 0  1 -0.8666666666666667 0  -1 -0.8 0  -0.9333333333333333 -0.8 0  -0.8666666666666667 -0.8 0  -0.8 -0.8 0  -0.7333333333333334 -0.8 0  -0.6666666666666667 -0.8 0  -0.6 -0.8 0  -0.5333333333333333 -0.8 0  -0.4666666666666667 -0.8 0  -0.4 -0.8 0  -0.3333333333333334 -0.8 0  -0.2666666666666667 -0.8 0  -0.2 -0.8 0  -0.1333333333333333 -0.8 0  -0.06666666666666665 -0.8 0  0 -0.8 0  0.06666666666666665 -0.8 0  0.1333333333333333 -0.8 0  0.2 -0.8 0  0.2666666666666666 -0.8 0  0.3333333333333333 -0.8 0  0.3999999999999999 -0.8 0  0.4666666666666666 -0.8 0  0.5333333333333334 -0.8 0  0.6000000000000001 -0.8 0  0.6666666666666667 -0.8 0  0.7333333333333334 -0.8 0  0.8 -0.8 0  0.8666666666666667 -0.8 0  0.9333333333333333 -0.8 0  1 -0.8 0  -1 -0.7333333333333334 0  -0.9333333333333333 -0.7333333333333334 0  -0.8666666666666667 -0.7333333333333334 0  -0.8 -0.7333333333333334 0  -0.7333333333333334 -0.7333333333333334 0  -0.6666666666666667 -0.7333333333333334 0  -0.6 -0.7333333333333334 0  -0.5333333333333333 -0.7333333333333334 0  -0.4666666666666667 -0.7333333333333334 0  -0.4 -0.7333333333333334 0  -0.3333333333333334 -0.7333333333333334 0  -0.2666666666666667 -0.7333333333333334 0  -0.2 -0.7333333333333334 0  -0.1333333333333333 -0.7333333333333334 0  -0.06666666666666665 -0.7333333333333334 0  0 -0.7333333333333334 0  0.06666666666666665 -0.7333333333333334 0  0.1333333333333333 -0.7333333333333334 0  0.2 -0.7333333333333334 0  0.2666666666666666 -0.7333333333333334 0  0.3333333333333333 -0.7333333333333334 0  0.3999999999999999 -0.7333333333333334 0  0.4666666666666666 -0.7333333333333334 0  0.5333333333333334 -0.7333333333333334 0  0.6000000000000001 -0.7333333333333334 0  0.6666666666666667 -0.7333333333333334 0  0.7333333333333334 -0.7333333333333334 0  0.8 -0.7333333333333334 0  0.8666666666666667 -0.7333333333333334 0  0.9333333333333333 -0.7333333333333334 0  1 -0.7333333333333334 0  -1 -0.6666666666666667 0  -0.9333333333333333 -0.6666666666666667 0  -0.8666666666666667 -0.6666666666666667 0  -0.8 -0.6666666666666667 0  -0.7333333333333334 -0.6666666666666667 0  -0.6666666666666667 -0.6666666666666667 0  -0.6 -0.6666666666666667 0  -0.5333333333333333 -0.6666666666666667 0  -0.4666666666666667 -0.6666666666666667 0  -0.4 -0.6666666666666667 0  -0.3333333333333334 -0.6666666666666667 0  -0.2666666666666667 -0.6666666666666667 0  -0.2 -0.6666666666666667 0  -0.1333333333333333 -0.6666666666666667 0  -0.06666666666666665 -0.6666666666666667 0  0 -0.6666666666666667 0  0.06666666666666665 -0.6666666666666667 0  0.1333333333333333 -0.6666666666666667 0  0.2 -0.6666666666666667 0  0.2666666666666666 -0.6666666666666667 0  0.3333333333333333 -0.6666666666666667 0  0.3999999999999999 -0.6666666666666667 0  0.4666666666666666 -0.6666666666666667 0  0.5333333333333334 -0.6666666666666667 0  0.6000000000000001 -0.6666666666666667 0  0.6666666666666667 -0.6666666666666667 0  0.7333333333333334 -0.6666666666666667 0  0.8 -0.6666666666666667 0  0.8666666666666667 -0.6666666666666667 0  0.9333333333333333 -0.6666666666666667 0  1 -0.6666666666666667 0  -1 -0.6 0  -0.9333333333333333 -0.6 0  -0.8666666666666667 -0.6 0  -0.8 -0.6 0  -0.7333333333333334 -0.6 0  -0.6666666666666667 -0.6 0  -0.6 -0.6 0  -0.5333333333333333 -0.6 0  -0.4666666666666667 -0.6 0  -0.4 -0.6 0  -0.3333333333333334 -0.6 0  -0.2666666666666667 -0.6 0  -0.2 -0.6 0  -0.1333333333333333 -0.6 0  -0.06666666666666665 -0.6 0  0 -0.6 0  0.06666666666666665 -0.6 0  0.1333333333333333 -0.6 0  0.2 -0.6 0  0.2666666666666666 -0.6 0  0.3333333333333333 -0.6 0  0.3999999999999999 -0.6 0  0.4666666666666666 -0.6 0  0.5333333333333334 -0.6 0  0.6000000000000001 -0.6 0  0.6666666666666667 -0.6 0  0.7333333333333334 -0.6 0  0.8 -0.6 0  0.8666666666666667 -0.6 0  0.9333333333333333 -0.6 0  1 -0.6 0  -1 -0.5333333333333333 0  -0.9333333333333333 -0.5333333333333333 0  -0.8666666666666667 -0.5333333333333333 0  -0.8 -0.5333333333333333 0  -0.7333333333333334 -0.5333333333333333 0  -0.6666666666666667 -0.5333333333333333 0  -0.6 -0.5333333333333333 0  -0.5333333333333333 -0.5333333333333333 0  -0.4666666666666667 -0.5333333333333333 0  -0.4 -0.5333333333333333 0  -0.3333333333333334 -0.5333333333333333 0  -0.2666666666666667 -0.5333333333333333 0  -0.2 -0.5333333333333333 0  -0.1333333333333333 -0.5333333333333333 0  -0.06666666666666665 -0.5333333333333333 0  0 -0.5333333333333333 0  0.06666666666666665 -0.5333333333333333 0  0.1333333333333333 -0.5333333333333333 0  0.2 -0.5333333333333333 0  0.2666666666666666 -0.5333333333333333 0  0.3333333333333333 -0.5333333333333333 0  0.3999999999999999 -0.5333333333333333 0  0.4666666666666666 -0.5333333333333333 0  0.5333333333333334 -0.5333333333333333 0  0.6000000000000001 -0.5333333333333333 0  0.6666666666666667 -0.5333333333333333 0  0.7333333333333334 -0.5333333333333333 0  0.8 -0.5333333333333333 0  0.8666666666666667 -0.5333333333333333 0  0.9333333333333333 -0.5333333333333333 0  1 -0.5333333333333333 0  -1 -0.4666666666666667 0  -0.9333333333333333 -0.4666666666666667 0  -0.8666666666666667 -0.4666666666666667 0  -0.8 -0.4666666666666667 0  -0.7333333333333334 -0.4666666666666667 0  -0.6666666666666667 -0.4666666666666667 0  -0.6 -0.4666666666666667 0  -0.5333333333333333 -0.4666666666666667 0  -0.4666666666666667 -0.4666666666666667 0  -0.4 -0.4666666666666667 0  -0.3333333333333334 -0.4666666666666667 0  -0.2666666666666667 -0.4666666666666667 0  -0.2 -0.4666666666666667 0  -0.1333333333333333 -0.4666666666666667 0  -0.06666666666666665 -0.4666666666666667 0  0 -0.4666666666666667 0  0.06666666666666665 -0.4666666666666667 0  0.1333333333333333 -0.4666666666666667 0  0.2 -0.4666666666666667 0  0.2666666666666666 -0.4666666666666667 0  0.3333333333333333 -0.4666666666666667 0  0.3999999999999999 -0.4666666666666667 0  0.4666666666666666 -0.4666666666666667 0  0.5333333333333334 -0.4666666666666667 0  0.6000000000000001 -0.4666666666666667 0  0.6666666666666667 -0.4666666666666667 0  0.7333333333333334 -0.4666666666666667 0  0.8 -0.4666666666666667 0  0.8666666666666667 -0.4666666666666667 0  0.9333333333333333 -0.4666666666666667 0  1 -0.4666666666666667 0  -1 -0.4 0  -0.9333333333333333 -0.4 0  -0.8666666666666667 -0.4 0  -0.8 -0.4 0  -0.7333333333333334 -0.4 0  -0.6666666666666667 -0.4 0  -0.6 -0.4 0  -0.5333333333333333 -0.4 0  -0.4666666666666667 -0.4 0  -0.4 -0.4 0  -0.3333333333333334 -0.4 0  -0.2666666666666667 -0.4 0  -0.2 -0.4 0  -0.1333333333333333 -0.4 0  -0.06666666666666665 -0.4 0  0 -0.4 0  0.06666666666666665 -0.4 0  0.1333333333333333 -0.4 0  0.2 -0.4 0  0.2666666666666666 -0.4 0  0.3333333333333333 -0.4 0  0.3999999999999999 -0.4 0  0.4666666666666666 -0.4 0  0.5333333333333334 -0.4 0  0.6000000000000001 -0.4 0  0.6666666666666667 -0.4 0  0.7333333333333334 -0.4 0 
[...]
<PointData  Scalars="f_24"> 
<DataArray  type="Float64"  Name="f_24"  format="ascii">0.0000000000000000e+00  0.0000000000000000e+00  0.0000000000000000e+00  0.0000000000000000e+00  0.0000000000000000e+00  0.0000000000000000e+00  0.0000000000000000e+00  0.0000000000000000e+00  0.0000000000000000e+00  0.0000000000000000e+00  0.0000000000000000e+00  0.0000000000000000e+00  0.0000000000000000e+00  0.0000000000000000e+00  0.0000000000000000e+00  0.0000000000000000e+00  0.0000000000000000e+00  0.0000000000000000e+00  0.0000000000000000e+00  0.0000000000000000e+00  0.0000000000000000e+00  0.0000000000000000e+00  0.0000000000000000e+00  0.0000000000000000e+00  0.0000000000000000e+00  -3.9305259124249807e-08  0.0000000000000000e+00  -3.9159939638178403e-07  0.0000000000000000e+00  0.0000000000000000e+00  9.7044905554021437e+00  0.0000000000000000e+00  8.8827685838439558e+06  9.7250191458871681e+06  1.4151541146912526e+07  1.0232955930269917e+07  1.4000662947398003e+07  8.0488873540844349e+06  1.3345358884133279e+07  5.7658337552513182e+06  1.2506281231224988e+07  4.1761282536474704e+06  1.2211596068717487e+07  2.5820572301947810e+06  1.2720230702263122e+07  1.3881272730129638e+06  1.3293110307341784e+07  9.7016679469191225e+05  1.4119455858708875e+07  9.2587669515782350e+05  1.5453648387878899e+07  1.4440723358740569e+06  1.7936527901065629e+07  9.3224152087316522e+05  2.6191137120567027e+07  -4.0842956689995332e+06  4.5602626903597072e+07  -1.3633971908622669e+07  7.5485936642285883e+07  -8.3830487971354062e+06  1.6407217440387911e+08  8.4738293635992381e+00  0.0000000000000000e+00  9.7250191305843927e+06  1.0727391681722861e+07  4.4006603237190386e+06  2.0481015096567469e+06  -2.7201258097867160e+06  -2.4818593506313767e+06  -6.1311507244542455e+06  -4.8986090327846380e+06  -6.8275586641639927e+06  -5.7419374772160165e+06  -7.5234619243825870e+06  -5.4842169935164042e+06  -7.8099271315689422e+06  -5.8870817765986575e+06  -7.3835102161915647e+06  -6.4601978703643130e+06  -7.4738715272780657e+06  -6.7300295640533241e+06  -7.5831797159811547e+06  -7.2561643389737336e+06  -8.6743367183006927e+06  -5.3240295638200352e+06  -1.5054304831359973e+07  -7.1118844502056856e+05  -2.4627637308689076e+07  2.4650089219597043e+06  -2.1304052275609963e+07  -1.3116446182295881e+07  -8.3830549059150992e+06  7.3641028972236642e+00  -9.0683627389428463e-09  1.4151541140370604e+07  4.4006603264277251e+06  1.6965042362966596e+06  -3.2464883377437675e+06  1.1806191312873710e+06  -3.3831746503453651e+06  3.0219088004118120e+06  -1.5672330723318693e+06  5.1718507877002833e+06  -1.6525441851672414e+06  7.5159042103285063e+06  -1.9434669047222040e+06  8.3695657294684332e+06  -1.7544258386611312e+06  9.1693330702636819e+06  -2.5974468184014768e+06  1.0591156646349456e+07  -3.4093327120283735e+06  1.1019516136375593e+07  -4.1430822112009740e+06  1.3406445032910084e+07  -8.4033018526350092e+06  2.2428954576506581e+07  -1.3937877904195301e+07  3.4685132001843467e+07  -2.2519409498691011e+07  4.1480756746563606e+07  -2.1304051855498575e+07  7.5485937828878686e+07  6.3671161882538971e+00  0.0000000000000000e+00  1.0232955882783584e+07  2.0481015245209271e+06  -3.2464883421686660e+06  5.7792393152693601e+05  -3.3572229429882681e+06  3.6095983471660165e+05  -2.5874438368201493e+06  -2.2341057204494459e+05  -4.2497795329937376e+06  -2.6400904817039584e+05  -5.0599991516807824e+06  -1.5564742393903043e+06  -4.8184786446106872e+06  -2.2208495139907296e+06  -5.4621918198022163e+06  -2.0299681404477323e+06  -5.5206132352204304e+06  -3.0621263780423664e+06  -4.3026402158110589e+06  -3.1118290531722233e+06  -7.0707188163843611e+06  1.2705268033133038e+05  -1.6122574411595894e+07  2.5213167163733854e+06  -2.2997467436510257e+07  9.1930577887104806e+06  -2.2519415925540619e+07  2.4650132594439685e+06  -1.3633977023007944e+07  5.4749620691919141e+00  -5.9422574212425003e-10  1.4000662934018053e+07  -2.7201257815530598e+06  1.1806191362299395e+06  -3.3572229457818526e+06  9.9337677078499552e+05  -2.3482452832276397e+06  2.1491615134004625e+06  -3.5536173095614566e+06  4.2891171019807905e+06  -3.3177961925531509e+06  4.9160009745544409e+06  -2.7260135117376163e+06  6.3278979703096701e+06  -3.6386976332800896e+06  8.1040661086763516e+06  -4.2163657713781139e+06  8.3067570928631686e+06  -3.9567670947355181e+06  8.6749464890508279e+06  -6.5008410232377918e+06  1.4547564059800450e+07  -1.0789767481205007e+07  2.4081239937233858e+07  -1.5420955705014909e+07  2.8330935822297890e+07  -2.2997475200101878e+07  3.4685139314656571e+07  -2.4627638100226820e+07  4.5602626498020254e+07  4.6800205224740283e+00  0.0000000000000000e+00  8.0488872850318383e+06  -2.4818593083981085e+06  -3.3831746898186146e+06  3.6095984349503147e+05  -2.3482452868475378e+06  1.6465783257775910e+06  -3.6912839103794354e+06  2.3683545287738405e+06  -3.5513362153020515e+06  1.1097782476744135e+06  -3.5798577064969940e+06  1.0884560733175622e+06  -4.6843810623688214e+06  1.0537715226287497e+06  -4.7136257463515727e+06  -8.2386326472336135e+04  -3.7022421484057908e+06  -1.0438434676399169e+06  -4.0526850384994415e+06  6.2859133519135311e+05  -9.3352006661882233e+06  1.5801856965388458e+06  -1.3992387447543038e+07  4.3069921462848438e+06  -1.5420974305864638e+07  2.5213310892681642e+06  -1.3937883378316475e+07  -7.1118906563700363e+05  -4.0842974097196981e+06  3.9749593314927187e+00  -3.7429276254515650e-09  1.3345358877053421e+07  -6.1311506827544170e+06  3.0219087964977063e+06  -2.5874438210047218e+06  2.1491615168401818e+06  -3.6912839142639693e+06  2.8545638576581147e+06  -3.3406405139883356e+06  2.8268863090392756e+06  -3.3493747874037344e+06  4.7224044350526454e+06  -4.1199687805477846e+06  5.8848234119927930e+06  -3.9448756633628733e+06  6.3984734324037675e+06  -3.9957632466377118e+06  6.8849677897504326e+06  -4.7225809913408365e+06  8.9084904209215697e+06  -7.4866315482923109e+06  1.5010967463777402e+07  -9.7611589803250395e+06  1.8363802340455689e+07  -1.3992419758768836e+07  2.4081266568355609e+07  -1.6122579773232669e+07  2.2428949835316002e+07  -1.5054299699379377e+07  2.6191136293383230e+07  3.3527337549559144e+00  0.0000000000000000e+00  5.7658336639294503e+06  -4.8986089731723601e+06  -1.5672331373260110e+06  -2.2341054860083482e+05  -3.5536173451169734e+06  2.3683545439082733e+06  -3.3406405203686156e+06  2.3896174227449042e+06  -3.4488769512932962e+06  3.3947274530044287e+06  -4.1725970138460891e+06  2.6627439022899107e+06  -3.9207877274265387e+06  2.1567943270830265e+06  -4.3124881233501500e+06  1.8152375719972372e+06  -3.7335677914810167e+06  1.0675738596504109e+06  -4.8819040601532189e+06  1.9302049702872478e+06  -8.8199753410038576e+06  2.6103724358586236e+06  -9.7612191999647506e+06  1.5802341173048662e+06  -1.0789778186429234e+07  1.2704128227765075e+05  -8.4032931649590284e+06  -5.3240305403644536e+06  9.3223798895570158e+05  2.8065865920324509e+00  1.6219686789068836e-08  1.2506281231862342e+07  -6.8275586033335254e+06  5.1718507740230765e+06  -4.2497795104393298e+06  4.2891171177914822e+06  -3.5513362122321846e+06  2.8268863138801078e+06  -3.4488769546846254e+06  3.8802073007448525e+06  -4.0818697790413471e+06  3.8137086461682594e+06  -3.7289977624158561e+06  5.1826805338138351e+06  -4.6702072437216835e+06  6.1931050127402619e+06  -4.2720962530504316e+06  5.5164862496832255e+06  -4.3510685286444519e+06  8.6393840958775375e+06  -6.7976403328209240e+06  1.2334221969714588e+07  -8.8200782852651868e+06  1.5011052016936518e+07  -9.3352155149372984e+06  1.4547539317687694e+07  -7.0706969366012290e+06  1.3406441398384934e+07  -8.6743402288692128e+06  1.7936530215622865e+07  2.3300482469367112e+00  0.0000000000000000e+00  4.1761281440957296e+06  -5.7419374056937983e+06  -1.6525442910916316e+06  -2.6400898827122682e+05  -3.3177962627196847e+06  1.1097782707929150e+06  -3.3493748190296283e+06  3.3947274710271852e+06  -4.0818697897175015e+06  3.3190917723013908e+06  -3.6589362417991231e+06  4.2459188701741565e+06  -4.9556830715165893e+06  3.6884873917188779e+06  -3.9671479886606308e+06  1.8241476157025732e+06  -2.7695592439182447e+06  2.1938059602006436e+06  -6.3563265436990047e+06  3.4674030083531821e+06  -6.7978115267492691e+06  1.9303466605535445e+06  -7.4866551483387714e+06  6.2854347219590365e+05  -6.5008004057177361e+06  -3.1118358181541199e+06  -4.1430933261976824e+06  -7.2561567225427898e+06  1.4440700124566720e+06  1.9169364060053624e+00  0.0000000000000000e+00  1.2211596080035843e+07  -7.5234618588487124e+06  7.5159042112513185e+06  -5.0599991222778857e+06  4.9160009819729216e+06  -3.5798576891258354e+06  4.7224044581373027e+06  -4.1725970242060665e+06  3.8137086582159763e+06  -3.6589362459728243e+06  4.7760283349874327e+06  -5.2023400203665886e+06  4.6053939287364818e+06  -3.6923776517366306e+06  4.3577222035722760e+06  -3.4358267699459544e+06  5.0550160592062632e+06  -5.4719555395594733e+06  9.0879709074950479e+06  -6.3565924660573984e+06  8.6396091207514480e+06  -4.8819365466223741e+06  8.9084034425745830e+06  -4.0526096200594744e+06  8.6749339822282922e+06  -4.3026604237440396e+06  1.1019531573705504e+07  -7.5831805805818196e+06  1.5453645777751587e+07  1.5613566835439043e+00  0.0000000000000000e+00  2.5820570880269678e+06  -5.4842168935549827e+06  -1.9434670569770660e+06  -1.5564741623572700e+06  -2.7260136097520902e+06  1.0884561286338230e+06  -4.1199688631611192e+06  2.6627439391749124e+06  -3.7289977984600645e+06  4.2459188933518948e+06  -5.2023400395487761e+06  4.0901917985180435e+06  -3.2263370696575409e+06  3.6190972663260135e+06  -4.3173286614347594e+06  3.0949984090299169e+06  -4.0461534104867531e+06  3.7465697843653327e+06  -5.4723426562739760e+06  2.1941414729503426e+06  -4.3511124538387824e+06  1.0674268521908368e+06  -4.7224541276803566e+06  -1.0438633271580440e+06  -3.9568072076357012e+06  -3.0620957912919116e+06  -3.4093361697705919e+06  -6.7300367017710237e+06  9.2587882110474899e+05  1.2577019759801178e+00  1.9025173350419142e-06  1.2720230737940747e+07  -7.8099270636239517e+06  8.3695657331219232e+06  -4.8184785927169211e+06  6.3278979871678371e+06  -4.6843810577853397e+06  5.8848234521252019e+06  -3.9207877287723860e+06  5.1826805701322444e+06  -4.9556831033113636e+06  4.6053939594845483e+06  -3.2263370765867196e+06  4.1264332704748414e+06  -5.4175156974853044e+06  4.6724570985025670e+06  -2.8058648130002343e+06  3.9778963090626467e+06  -4.0466717692259122e+06  5.0554803140755519e+06  -2.7696126653757496e+06  5.5162555490527060e+06  -3.7333662939539561e+06  6.8849388579476662e+06  -3.7023125255896398e+06  8.3068119943882786e+06  -5.5206170897465572e+06  1.0591139900189558e+07  -7.4738619987619789e+06  1.4119456126452478e+07  1.0006527847873363e+00  0.0000000000000000e+00  1.3881270828992194e+06  -5.8870816552503342e+06  -1.7544260285106269e+06  -2.2208494093313557e+06  -3.6386977975002727e+06  1.0537716258115512e+06  -3.9448757896386865e+06  2.1567943977130773e+06  -4.6702073516173763e+06  3.6884874603019692e+06  -3.6923777040047240e+06  3.6190972935596574e+06  -5.4175157325345278e+06  4.6534676778491754e+06  -1.7015191732424505e+06  5.2355590702541790e+05  -2.8064993113966607e+06  3.0955888609504011e+06  -3.4358880355304098e+06  1.8238153962003496e+06  -4.2718024643381843e+06  1.8152002677700627e+06  -3.9958815596173718e+06  -8.2293881869947916e+04  -4.2163723593782391e+06  -2.0300000513458441e+06  -2.5974288653525370e+06  -6.4601961301296838e+06  9.7016114897140616e+05  7.8517715189979620e-01  7.4976577064942699e-09  1.3293110367322410e+07  -7.3835101269827457e+06  9.1693330840253793e+06  -5.4621917759666722e+06  8.1040661655843882e+06  -4.7136257485134462e+06  6.3984734918439221e+06  -4.3124881519913515e+06  6.1931051030464144e+06  -3.9671480340002705e+06  4.3577222704441193e+06  -4.3173287382399486e+06  4.6724571992730461e+06  -1.7015192157366916e+06  -1.7377676555867403e+05  -1.7022223261790432e+06  4.6731416045363164e+06  -4.3173938099508844e+06  4.3572871414928557e+06  -3.9667537726505930e+06  6.1930617889354397e+06  -4.3126691785432380e+06  6.3986163790993914e+06  -4.7136324982033214e+06  8.1040094388256874e+06  -5.4621575247432292e+06  9.1693363693400621e+06  -7.3835224494719114e+06  1.3293114497582419e+07  6.0653065971263398e-01  0.0000000000000000e+00  9.7016654322843230e+05  -6.4601977166547310e+06  -2.5974470906416676e+06  -2.0299679666820103e+06  -4.2163660202520397e+06  -8.2386176408773943e+04  -3.9957634538628953e+06  1.8152377283841418e+06  -4.2720964557888769e+06  1.8241477492552381e+06  -3.4358269432416344e+06  3.0949985651168637e+06  -2.8058649359017247e+06  5.2355590699681698e+05  -1.7022222836716720e+06  4.6541871368227536e+06  -5.4175824436201360e+06  3.6185837900832007e+06  -3.6918967044185172e+06  3.6884421085022870e+06  -4.6704608517085426e+06  2.1569969744199798e+06  -3.9448814978819289e+06  1.0536799154948881e+06  -3.6386419634617064e+06  -2.2208424495637170e+06  -1.7544515077395246e+06  -5.8870714127435908e+06  1.3881284870580870e+06  4.6025643108188735e-01  7.7033590955826834e-09  1.4119455952995710e+07  -7.4738714303473253e+06  1.0591156712658076e+07  -5.5206132150100209e+06  8.3067571911386186e+06  -3.7022421715592486e+06  6.8849679239587029e+06  -3.7335678820779626e+06  5.5164864005156504e+06  -2.7695593273419063e+06  5.0550161989728184e+06  -4.0461534822722492e+06  3.9778963090010695e+06  -2.8064991884157299e+06  4.6731415037763929e+06  -5.4175824085715432e+06  4.1258902355150306e+06  -3.2258048689222587e+06  4.6053491581488000e+06  -4.9560019420808209e+06  5.1829414833107814e+06  -3.9207885243878057e+06  5.8846878588587744e+06  -4.6842966730207447e+06  6.3279105968600921e+06  -4.8185216774148336e+06  8.3695838990722233e+06  -7.8099209654606916e+06  1.2720223971649384e+07  3.4218512256246653e-01  0.0000000000000000e+00  9.2587633103722415e+05  -6.7300293267685128e+06  -3.4093331189668430e+06  -3.0621261278990097e+06  -3.9567674425757471e+06  -1.0438432373580632e+06  -4.7225813146434631e+06  1.0675740709974556e+06  -4.3510687615544433e+06  2.1938060772812413e+06  -5.4719556791778030e+06  3.7465697843271960e+06  -4.0466716973238643e+06  3.0955887047654530e+06  -4.3173937331922511e+06  3.6185837628337694e+06  -3.2258048619959266e+06  4.0901476340235653e+06  -5.2026985844916794e+06  4.2462230809679776e+06  -3.7289924426612025e+06  2.6625631863082158e+06  -4.1198546007569050e+06  1.0884773991328669e+06  -2.7260812644939697e+06  -1.5564450294487434e+06  -1.9434555514022810e+06  -5.4842329982562503e+06  2.5820603296877979e+06  2.4843495821829492e-01  -8.2298557378547960e-09  1.5453648548374698e+07  -7.5831796095291292e+06  1.1019516248233197e+07  -4.3026401813018089e+06  8.6749466196835320e+06  -4.0526850650935946e+06  8.9084905659541972e+06  -4.8819040707032587e+06  8.6393841553274393e+06  -6.3563264960991284e+06  9.0879709073983077e+06  -5.4723425166193033e+06  5.0554801742584910e+06  -3.4358878621080662e+06  4.3572870747229820e+06  -3.6918966521003433e+06  4.6053491274246108e+06  -5.2026985653047590e+06  4.7763485504840175e+06  -3.6589260819952576e+06  3.8134930249046441e+06  -4.1724565691763572e+06  4.7224358218164453e+06  -3.5799521995257023e+06  4.9160422814264381e+06  -5.0599786199122332e+06  7.5158751136354133e+06  -7.5234540756549258e+06  1.2211600494433858e+07  1.7541166200202818e-01  0.0000000000000000e+00  1.4440717936816260e+06  -7.2561640138323177e+06  -4.1430827400624813e+06  -3.1118287747341944e+06  -6.5008414340160647e+06  6.2859154990566336e+05  -7.4866318314072145e+06  1.9302050483998784e+06  -6.7976404637512965e+06  3.4674030079858205e+06  -6.3565925132352440e+06  2.1941413558561648e+06  -2.7696125820175097e+06  1.8238152624560802e+06  -3.9667537274896218e+06  3.6884420398053415e+06  -4.9560019103458105e+06  4.2462230577627113e+06  -3.6589260778248352e+06  3.3188629443878215e+06  -4.0817143568835915e+06  3.3947674882240081e+06  -3.3494941047774348e+06  1.1098313117971194e+06  -3.3177660995825180e+06  -2.6405293558957230e+05  -1.6525331819593096e+06  -5.7419261343721552e+06  4.1761198512707157e+06  1.1980852537533516e-01  0.0000000000000000e+00  1.7936528101108670e+07  -8.6743364939298145e+06  1.3406445122326791e+07  -7.0707186983642783e+06  1.4547564177609034e+07  -9.3352005986638311e+06  1.5010967525382485e+07  -8.8199752184237000e+06  1.2334221969527882e+07  -6.7978113951439746e+06  8.6396090606931578e+06  -4.3511122208879879e+06  5.5162553984526768e+06  -4.2718022612609649e+06  6.1930616989327138e+06  -4.6704607435843609e+06  5.1829414471265282e+06  -3.7289924065444777e+06  3.8134930128856385e+06  -4.0817143462037090e+06  3.8802507473615245e+06  -3.4490108658453180e+06  2.8269476841843845e+06  -3.5512962318731868e+06  4.2890580348713407e+06  -4.2497641864051847e+06  5.1718698227164401e+06  -6.8275749932612395e+06  1.2506283163586058e+07  7.8606232033112122e-02  0.0000000000000000e+00  9.3224076899906539e+05  -5.3240291811182480e+06  -8.4033025078709684e+06  1.2705295108154776e+05  -1.0789767925264856e+07  1.5801858282353564e+06  -9.7611592202599831e+06  2.6103724351737765e+06  -8.8200784075687714e+06  1.9303465821608531e+06  -4.8819365353914937e+06  1.0674266406617495e+06  -3.7333662038486353e+06  1.8152001107760186e+06  -4.3126691504437421e+06  2.1569969033654169e+06  -3.9207885233279499e+06  2.6625631492601819e+06  -4.1724565589006497e+06  3.3947674701717915e+06  -3.4490108624576000e+06  2.3896818284839666e+06  -3.3405947179100229e+06  2.3682841737191267e+06  -3.5535994610833335e+06  -2.2338303146626431e+05  -1.5672590834097925e+06  -4.8986058549308144e+06  5.7658394587561628e+06  4.9073571993737297e-02  5.5145126208862437e-09  2.6191137265410092e+07  -1.5054304399197716e+07  2.2428954695536394e+07  -1.6122574232788835e+07  2.4081240068465140e+07  -1.3992387257540567e+07  1.8363802338942029e+07  -9.7612189571584016e+06  1.5011051954601428e+07  -7.4866548655180568e+06  8.9084032969473116e+06  -4.7224538038705131e+06  6.8849387246923186e+06  -3.9958813513048012e+06  6.3986163206443070e+06  -3.9448813708161623e+06  5.8846878192930976e+06  -4.1198545177829931e+06  4.7224357989318203e+06  -3.3494940730545460e+06  2.8269476793745137e+06  -3.3405947115268465e+06  2.8544892448750823e+06  -3.6912643711695764e+06  2.1491953886624430e+06  -2.5874769839465464e+06  3.0219117457083818e+06  -6.1311373235872760e+06  1.3345351823483145e+07  2.8766026942617935e-02  0.0000000000000000e+00  -4.0842967839691225e+06  -7.1118788165167882e+05  -1.3937878783082720e+07  2.5213169487154549e+06  -1.5420956176991867e+07  4.3069921470951373e+06  -1.3992419949218823e+07  1.5802339821767986e+06  -9.3352155805374365e+06  6.2854325844269735e+05  -4.0526095931925159e+06  -1.0438635586496171e+06  -3.7023125042902599e+06  -8.2294033950584912e+04  -4.7136324978774227e+06  1.0536798108119532e+06  -4.6842966787206139e+06  1.0884773430589868e+06  -3.5799522173592485e+06  1.1098312884309255e+06  -3.5512962350563435e+06  2.3682841585510555e+06  -3.6912643672881830e+06  1.6466146377004818e+06  -2.3482830136693418e+06  3.6096270699444169e+05  -3.3831559045635336e+06  -2.4818715524027636e+06  8.0488865452779904e+06  1.5527184888643415e-02  0.0000000000000000e+00  4.5602626908137284e+07  -2.4627636633170042e+07  3.4685132214501753e+07  -2.2997467047296010e+07  2.8330935813808348e+07  -1.5420973821147552e+07  2.4081266441594049e+07  -1.0789777741617201e+07  1.4547539195463963e+07  -6.5007999966077497e+06  8.6749338522635568e+06  -3.9568068569232281e+06  8.3068118999421196e+06  -4.2163721065259781e+06  8.1040093855187092e+06  -3.6386417962769852e+06  6.3279105822603498e+06  -2.7260811648877617e+06  4.9160422750424510e+06  -3.3177660288096615e+06  4.2890580193738639e+06  -3.5535994253928373e+06  2.1491953852605596e+06  -2.3482830100463200e+06  9.9337951541558257e+05  -3.3572004810967050e+06  1.1806029138310747e+06  -2.7201267968200310e+06  1.4000668869634090e+07  7.4880328359584374e-03  0.0000000000000000e+00  -1.3633973822739670e+07  2.4650096887052641e+06  -2.2519410447152872e+07  9.1930577769067604e+06  -2.2997475632754482e+07  2.5213308313706927e+06  -1.6