<?xml version="1.0"?>
<VTKFile type="UnstructuredGrid"  version="0.1"  >
<UnstructuredGrid>
<Piece  NumberOfPoints="961" NumberOfCells="1800">
<Points>
<DataArray  type="Float64"  NumberOfComponents="3"  format="ascii">-1 -1 0  -0.9333333333333333 -1 0  -0.8666666666666667 -1 0  -0.8 -1 0  -0.7333333333333334 -1 0  -0.6666666666666667 -1 0  -0.6 -1 0  -0.5333333333333333 -1 0  -0.4666666666666667 -1 0  -0.4 -1 0  -0.3333333333333334 -1 0  -0.2666666666666667 -1 0  -0.2 -1 0  -0.1333333333333333 -1 0  -0.06666666666666665 -1 0  0 -1 0  0.06666666666666665 -1 0  0.1333333333333333 -1 0  0.2 -1 0  0.2666666666666666 -1 0  0.3333333333333333 -1 0  0.3999999999999999 -1 0  0.4666666666666666 -1 0  0.5333333333333334 -1 0  0.6000000000000001 -1 0  0.6666666666666667 -1 0  0.7333333333333334 -1 0  0.8 -1 0  0.8666666666666667 -1 0  0.9333333333333333 -1 0  1 -1 0  -1 -0.9333333333333333 0  -0.9333333333333333 -0.9333333333333333 0  -0.8666666666666667 -0.9333333333333333 0  -0.8 -0.9333333333333333 0  -0.7333333333333334 -0.9333333333333333 0  -0.6666666666666667 -0.9333333333333333 0  -0.6 -0.9333333333333333 0  -0.5333333333333333 -0.9333333333333333 0  -0.4666666666666667 -0.9333333333333333 0  -0.4 -0.9333333333333333 0  -0.3333333333333334 -0.9333333333333333 0  -0.2666666666666667 -0.9333333333333333 0  -0.2 -0.9333333333333333 0  -0.1333333333333333 -0.9333333333333333 0  -0.06666666666666665 -0.9333333333333333 0  0 -0.9333333333333333 0  0.06666666666666665 -0.9333333333333333 0  0.1333333333333333 -0.9333333333333333 0  0.2 -0.9333333333333333 0  0.2666666666666666 -0.9333333333333333 0  0.3333333333333333 -0.9333333333333333 0  0.3999999999999999 -0.9333333333333333 0  0.4666666666666666 -0.9333333333333333 0  0.5333333333333334 -0.9333333333333333 0  0.6000000000000001 -0.9333333333333333 0  0.6666666666666667 -0.9333333333333333 0  0.7333333333333334 -0.9333333333333333 0  0.8 -0.9333333333333333 0  0.8666666666666667 -0.9333333333333333 0  0.9333333333333333 -0.9333333333333333 0  1 -0.9333333333333333 0  -1 -0.8666666666666667 0  -0.9333333333333333 -0.8666666666666667 0  -0.8666666666666667 -0.8666666666666667 0  -0.8 -0.8666666666666667 0  -0.7333333333333334 -0.8666666666666667 0  -0.6666666666666667 -0.8666666666666667 0  -0.6 -0.8666666666666667 0  -0.5333333333333333 -0.8666666666666667 0  -0.4666666666666667 -0.8666666666666667 0  -0.4 -0.8666666666666667 0  -0.3333333333333334 -0.8666666666666667 0  -0.2666666666666667 -0.8666666666666667 0  -0.2 -0.8666666666666667 0  -0.1333333333333333 -0.8666666666666667 0  -0.06666666666666665 -0.8666666666666667 0  0 -0.8666666666666667 0  0.06666666666666665 -0.8666666666666667 0  0.1333333333333333 -0.8666666666666667 0  0.2 -0.8666666666666667 0  0.2666666666666666 -0.8666666666666667 0  0.3333333333333333 -0.8666666666666667 0  0.3999999999999999 -0.8666666666666667 0  0.4666666666666666 -0.8666666666666667 0  0.5333333333333334 -0.8666666666666667 0  0.6000000000000001 -0.8666666666666667 0  0.6666666666666667 -0.8666666666666667 0  0.7333333333333334 -0.8666666666666667 0  0.8 -0.8666666666666667 0  0.8666666666666667 -0.8666666666666667 0  0.9333333333333333 -0.8666666666666667 0  1 -0.8666666666666667 0  -1 -0.8 0  -0.9333333333333333 -0.8 0  -0.8666666666666667 -0.8 0  -0.8 -0.8 0  -0.7333333333333334 -0.8 0  -0.6666666666666667 -0.8 0  -0.6 -0.8 0  -0.5333333333333333 -0.8 0  -0.4666666666666667 -0.8 0  -0.4 -0.8 0  -0.3333333333333334 -0.8 0  -0.2666666666666667 -0.8 0  -0.2 -0.8 0  -0.1333333333333333 -0.8 0  -0.06666666666666665 -0.8 0  0 -0.8 0  0.06666666666666665 -0.8 0  0.1333333333333333 -0.8 0  0.2 -0.8 0  0.2666666666666666 -0.8 0  0.3333333333333333 -0.8 0  0.3999999999999999 -0.8 0  0.4666666666666666 -0.8 0  0.5333333333333334 -0.8 0  0.6000000000000001 -0.8 0  0.6666666666666667 -0.8 0  0.7333333333333334 -0.8 0  0.8 -0.8 0  0.8666666666666667 -0.8 0  0.9333333333333333 -0.8 0  1 -0.8 0  -1 -0.7333333333333334 0  -0.9333333333333333 -0.7333333333333334 0  -0.8666666666666667 -0.7333333333333334 0  -0.8 -0.7333333333333334 0  -0.7333333333333334 -0.7333333333333334 0  -0.6666666666666667 -0.7333333333333334 0  -0.6 -0.7333333333333334 0  -0.5333333333333333 -0.7333333333333334 0  -0.4666666666666667 -0.7333333333333334 0  -0.4 -0.7333333333333334 0  -0.3333333333333334 -0.7333333333333334 0  -0.2666666666666667 -0.7333333333333334 0  -0.2 -0.7333333333333334 0  -0.1333333333333333 -0.7333333333333334 0  -0.06666666666666665 -0.7333333333333334 0  0 -0.7333333333333334 0  0.06666666666666665 -0.7333333333333334 0  0.1333333333333333 -0.7333333333333334 0  0.2 -0.7333333333333334 0  0.2666666666666666 -0.7333333333333334 0  0.3333333333333333 -0.7333333333333334 0  0.3999999999999999 -0.7333333333333334 0  0.4666666666666666 -0.7333333333333334 0  0.5333333333333334 -0.7333333333333334 0  0.6000000000000001 -0.7333333333333334 0  0.6666666666666667 -0.7333333333333334 0  0.7333333333333334 -0.7333333333333334 0  0.8 -0.7333333333333334 0  0.8666666666666667 -0.7333333333333334 0  0.9333333333333333 -0.7333333333333334 0  1 -0.7333333333333334 0  -1 -0.6666666666666667 0  -0.9333333333333333 -0.6666666666666667 0  -0.8666666666666667 -0.6666666666666667 0  -0.8 -0.6666666666666667 0  -0.7333333333333334 -0.6666666666666667 0  -0.6666666666666667 -0.6666666666666667 0  -0.6 -0.6666666666666667 0  -0.5333333333333333 -0.6666666666666667 0  -0.4666666666666667 -0.6666666666666667 0  -0.4 -0.6666666666666667 0  -0.3333333333333334 -0.6666666666666667 0  -0.2666666666666667 -0.6666666666666667 0  -0.2 -0.6666666666666667 0  -0.1333333333333333 -0.6666666666666667 0  -0.06666666666666665 -0.6666666666666667 0  0 -0.6666666666666667 0  0.06666666666666665 -0.6666666666666667 0  0.1333333333333333 -0.6666666666666667 0  0.2 -0.6666666666666667 0  0.2666666666666666 -0.6666666666666667 0  0.3333333333333333 -0.6666666666666667 0  0.3999999999999999 -0.6666666666666667 0  0.4666666666666666 -0.6666666666666667 0  0.5333333333333334 -0.6666666666666667 0  0.6000000000000001 -0.6666666666666667 0  0.6666666666666667 -0.6666666666666667 0  0.7333333333333334 -0.6666666666666667 0  0.8 -0.6666666666666667 0  0.8666666666666667 -0.6666666666666667 0  0.9333333333333333 -0.6666666666666667 0  1 -0.6666666666666667 0  -1 -0.6 0  -0.9333333333333333 -0.6 0  -0.8666666666666667 -0.6 0  -0.8 -0.6 0  -0.7333333333333334 -0.6 0  -0.6666666666666667 -0.6 0  -0.6 -0.6 0  -0.5333333333333333 -0.6 0  -0.4666666666666667 -0.6 0  -0.4 -0.6 0  -0.3333333333333334 -0.6 0  -0.2666666666666667 -0.6 0  -0.2 -0.6 0  -0.1333333333333333 -0.6 0  -0.06666666666666665 -0.6 0  0 -0.6 0  0.06666666666666665 -0.6 0  0.1333333333333333 -0.6 0  0.2 -0.6 0  0.2666666666666666 -0.6 0  0.3333333333333333 -0.6 0  0.3999999999999999 -0.6 0  0.4666666666666666 -0.6 0  0.5333333333333334 -0.6 0  0.6000000000000001 -0.6 0  0.6666666666666667 -0.6 0  0.7333333333333334 -0.6 0  0.8 -0.6 0  0.8666666666666667 -0.6 0  0.9333333333333333 -0.6 0  1 -0.6 0  -1 -0.5333333333333333 0  -0.9333333333333333 -0.5333333333333333 0  -0.8666666666666667 -0.5333333333333333 0  -0.8 -0.5333333333333333 0  -0.7333333333333334 -0.5333333333333333 0  -0.6666666666666667 -0.5333333333333333 0  -0.6 -0.5333333333333333 0  -0.5333333333333333 -0.5333333333333333 0  -0.4666666666666667 -0.5333333333333333 0  -0.4 -0.5333333333333333 0  -0.3333333333333334 -0.5333333333333333 0  -0.2666666666666667 -0.5333333333333333 0  -0.2 -0.5333333333333333 0  -0.1333333333333333 -0.5333333333333333 0  -0.06666666666666665 -0.5333333333333333 0  0 -0.5333333333333333 0  0.06666666666666665 -0.5333333333333333 0  0.1333333333333333 -0.5333333333333333 0  0.2 -0.5333333333333333 0  0.2666666666666666 -0.5333333333333333 0  0.3333333333333333 -0.5333333333333333 0  0.3999999999999999 -0.5333333333333333 0  0.4666666666666666 -0.5333333333333333 0  0.5333333333333334 -0.5333333333333333 0  0.6000000000000001 -0.5333333333333333 0  0.6666666666666667 -0.5333333333333333 0  0.7333333333333334 -0.5333333333333333 0  0.8 -0.5333333333333333 0  0.8666666666666667 -0.5333333333333333 0  0.9333333333333333 -0.5333333333333333 0  1 -0.5333333333333333 0  -1 -0.4666666666666667 0  -0.9333333333333333 -0.4666666666666667 0  -0.8666666666666667 -0.4666666666666667 0  -0.8 -0.4666666666666667 0  -0.7333333333333334 -0.4666666666666667 0  -0.6666666666666667 -0.4666666666666667 0  -0.6 -0.4666666666666667 0  -0.5333333333333333 -0.4666666666666667 0  -0.4666666666666667 -0.4666666666666667 0  -0.4 -0.4666666666666667 0  -0.3333333333333334 -0.4666666666666667 0  -0.2666666666666667 -0.4666666666666667 0  -0.2 -0.4666666666666667 0  -0.1333333333333333 -0.4666666666666667 0  -0.06666666666666665 -0.4666666666666667 0  0 -0.4666666666666667 0  0.06666666666666665 -0.4666666666666667 0  0.1333333333333333 -0.4666666666666667 0  0.2 -0.4666666666666667 0  0.2666666666666666 -0.4666666666666667 0  0.3333333333333333 -0.4666666666666667 0  0.3999999999999999 -0.4666666666666667 0  0.4666666666666666 -0.4666666666666667 0  0.5333333333333334 -0.4666666666666667 0  0.6000000000000001 -0.4666666666666667 0  0.6666666666666667 -0.4666666666666667 0  0.7333333333333334 -0.4666666666666667 0  0.8 -0.4666666666666667 0  0.8666666666666667 -0.4666666666666667 0  0.9333333333333333 -0.4666666666666667 0  1 -0.4666666666666667 0  -1 -0.4 0  -0.9333333333333333 -0.4 0  -0.8666666666666667 -0.4 0  -0.8 -0.4 0  -0.7333333333333334 -0.4 0  -0.6666666666666667 -0.4 0  -0.6 -0.4 0  -0.5333333333333333 -0.4 0  -0.4666666666666667 -0.4 0  -0.4 -0.4 0  -0.3333333333333334 -0.4 0  -0.2666666666666667 -0.4 0  -0.2 -0.4 0  -0.1333333333333333 -0.4 0  -0.06666666666666665 -0.4 0  0 -0.4 0  0.06666666666666665 -0.4 0  0.1333333333333333 -0.4 0  0.2 -0.4 0  0.2666666666666666 -0.4 0  0.3333333333333333 -0.4 0  0.3999999999999999 -0.4 0  0.4666666666666666 -0.4 0  0.5333333333333334 -0.4 0  0.6000000000000001 -0.4 0  0.6666666666666667 -0.4 0  0.7333333333333334 -0.4 0 
[...]
<PointData  Scalars="f_24"> 
<DataArray  type="Float64"  Name="f_24"  format="ascii">0.0000000000000000e+00  0.0000000000000000e+00  0.0000000000000000e+00  0.0000000000000000e+00  0.0000000000000000e+00  0.0000000000000000e+00  0.0000000000000000e+00  0.0000000000000000e+00  0.0000000000000000e+00  0.0000000000000000e+00  0.0000000000000000e+00  0.0000000000000000e+00  0.0000000000000000e+00  0.0000000000000000e+00  0.0000000000000000e+00  0.0000000000000000e+00  0.0000000000000000e+00  0.0000000000000000e+00  0.0000000000000000e+00  0.0000000000000000e+00  0.0000000000000000e+00  0.0000000000000000e+00  0.0000000000000000e+00  0.0000000000000000e+00  0.0000000000000000e+00  -9.1270764909325049e-08  0.0000000000000000e+00  -2.4474962273861502e-08  0.0000000000000000e+00  0.0000000000000000e+00  1.4190726987474520e+01  0.0000000000000000e+00  1.2804350029057698e+07  1.3865457969824953e+07  2.0187713277181864e+07  1.4327095727275413e+07  1.9728570024426632e+07  1.0937312198362740e+07  1.8613169020576075e+07  7.4767402437190991e+06  1.7293325668399591e+07  5.0837752094405806e+06  1.6813026382511809e+07  2.7188109093284318e+06  1.7533978005274203e+07  9.5958087264951796e+05  1.8365341274836607e+07  3.4898986250416737e+05  1.9580828789573543e+07  2.9927041462140594e+05  2.1556301835453477e+07  1.0937147777768811e+06  2.5239003880888119e+07  4.1679400440948503e+05  3.7404158365901485e+07  -6.7954125887923893e+06  6.5943958098136514e+07  -2.0567370530519251e+07  1.0987269791671461e+08  -1.2616316334415181e+07  2.3972400306522939e+08  1.2391150091886377e+01  0.0000000000000000e+00  1.3865457947153404e+07  1.5046674080058195e+07  5.5992865039515113e+06  2.0541545183126824e+06  -4.9457437434655270e+06  -4.5669813466974683e+06  -9.8341049834772926e+06  -7.9424720014202660e+06  -1.0666362624218259e+07  -8.9859644338678215e+06  -1.1507718186440093e+07  -8.4580029893000405e+06  -1.1807737172223242e+07  -8.9648968724501692e+06  -1.1141162295028288e+07  -9.7998694091527350e+06  -1.1310505755790107e+07  -1.0270523681187987e+07  -1.1583104633747967e+07  -1.1184449744449081e+07  -1.3347629418450022e+07  -8.5410332437387127e+06  -2.2854350774591684e+07  -1.9468242517848047e+06  -3.6948134670745760e+07  2.6925693817355707e+06  -3.1967955366716299e+07  -1.9810923412488583e+07  -1.2616325266844176e+07  1.0768414179899064e+01  0.0000000000000000e+00  2.0187713267017938e+07  5.5992865076753842e+06  1.5239246369946960e+06  -5.6461232853776999e+06  1.0026786457015534e+06  -5.4407193457152434e+06  4.1644497461896068e+06  -2.3273221070114961e+06  7.7118387017240589e+06  -2.1202963751031603e+06  1.1396643657062676e+07  -2.3561731668495904e+06  1.2775375776504159e+07  -1.9989445532741155e+06  1.3982332982866338e+07  -3.2333442086463594e+06  1.6020244338530544e+07  -4.5039762431421243e+06  1.6514117968000285e+07  -5.7664417634855704e+06  1.9749107938770838e+07  -1.2321373279547051e+07  3.2549514172441926e+07  -2.0855390188055925e+07  5.0022450735544845e+07  -3.3790623713653363e+07  5.9731968979797609e+07  -3.1967954752218891e+07  1.0987269965237895e+08  9.3105364595808062e+00  0.0000000000000000e+00  1.4327095656968223e+07  2.0541545396508514e+06  -5.6461232920018379e+06  2.2290842481380809e+05  -5.1667920628065746e+06  6.1759547452803596e+05  -3.4156062793319579e+06  2.3634027367316111e+05  -5.5279874220812721e+06  3.6763905845192069e+05  -6.6130922728995346e+06  -1.4804721717072090e+06  -6.2498813476214753e+06  -2.4554918534008274e+06  -7.1971795214792369e+06  -2.1795451550450791e+06  -7.2829756940768138e+06  -3.6910837831591582e+06  -5.5176098571400857e+06  -3.8103273312202916e+06  -9.6690014553163815e+06  7.3207784426866204e+05  -2.3222395530119639e+07  3.7689039628873891e+06  -3.3879337392566986e+07  1.2845317529561073e+07  -3.3790633111309431e+07  2.6925757247824329e+06  -2.0567378008351006e+07  8.0059526615162433e+00  -8.9814954834031821e-09  1.9728570003793649e+07  -4.9457437026188057e+06  1.0026786527797887e+06  -5.1667920668505551e+06  1.6476067690172088e+06  -2.9117183642267613e+06  3.8480948388126413e+06  -4.4198009494902324e+06  7.0488531633613864e+06  -4.1086417235514619e+06  7.8851985652065976e+06  -3.3324769757622145e+06  9.8723051300940160e+06  -4.7221353375572953e+06  1.2440576638018610e+07  -5.5680195149668669e+06  1.2762954223200196e+07  -5.1368592549087815e+06  1.3373935782401748e+07  -8.7726435847323611e+06  2.2036058303824499e+07  -1.5015175540856484e+07  3.5899443448593162e+07  -2.2045306278293457e+07  4.1608620135145314e+07  -3.3879348745208256e+07  5.0022461429097407e+07  -3.6948135827730894e+07  6.5943957506011389e+07  6.8435218882496729e+00  0.0000000000000000e+00  1.0937312096192768e+07  -4.5669812853265600e+06  -5.4407194035120392e+06  6.1759548747001297e+05  -2.9117183695004797e+06  3.1435585330953291e+06  -4.6181081450583152e+06  4.1920608790883943e+06  -4.5483578988988400e+06  2.1802525854571741e+06  -4.7496987007492576e+06  2.0200360703685312e+06  -6.4585861169377174e+06  1.9091423706937011e+06  -6.5304199316123035e+06  2.4837825582219838e+05  -5.0218318973431280e+06  -1.0973274350478335e+06  -5.4423195133019127e+06  1.4724118008113636e+06  -1.3014271507232277e+07  3.0272688002794031e+06  -1.9696116142628506e+07  7.0157472459081672e+06  -2.2045333478039660e+07  3.7689249800518258e+06  -2.0855398192648936e+07  -1.9468251588033827e+06  -6.7954151330760662e+06  5.8125217740695643e+00  0.0000000000000000e+00  1.8613169008983392e+07  -9.8341049227733761e+06  4.1644497404778623e+06  -3.4156062560459245e+06  3.8480948438782864e+06  -4.6181081507031312e+06  4.8787175917564724e+06  -4.3015420699769482e+06  4.5992120078789433e+06  -4.5266499327354804e+06  7.2055971106070979e+06  -5.7729957403472532e+06  8.8240176895297617e+06  -5.5670243088195790e+06  9.5514698636391629e+06  -5.6410752694374453e+06  1.0287110246824214e+07  -6.6528765406061765e+06  1.3328499614670722e+07  -1.0573852196812188e+07  2.2415010716355756e+07  -1.3694689891451579e+07  2.7545590111935843e+07  -1.9696163390869778e+07  3.5899482390787154e+07  -2.3222403370530300e+07  3.2549507239408072e+07  -2.2854343269749496e+07  3.7404157157427408e+07  4.9026509023479701e+00  0.0000000000000000e+00  7.4767401089609750e+06  -7.9424719143960997e+06  -2.3273222019770467e+06  2.3634030812986489e+05  -4.4198010014602160e+06  4.1920609012506674e+06  -4.3015420793248583e+06  3.9305934225572143e+06  -4.7230874513967745e+06  5.1990862209044378e+06  -5.9233821988326618e+06  4.0322268473908012e+06  -5.6176143573977398e+06  3.2555356645512027e+06  -6.2070885734543875e+06  2.7568269944899748e+06  -5.3424761260305587e+06  1.7012508874349510e+06  -6.9595807788249655e+06  3.0582935472041806e+06  -1.2575471309955643e+07  4.2532600436981358e+06  -1.3694777949690046e+07  3.0273396052016043e+06  -1.5015191194980571e+07  7.3206117688700266e+05  -1.2321360575801361e+07  -8.5410346713731922e+06  4.1678884091605409e+05  4.1040283224417680e+00  3.8927248293765209e-08  1.7293325668190915e+07  -1.0666362535285693e+07  7.7118386818241617e+06  -5.5279873889324879e+06  7.0488531864815746e+06  -4.5483578943725023e+06  4.5992120149394162e+06  -4.7230874563353481e+06  5.8883099455511710e+06  -5.8237823130974248e+06  5.6751964221651759e+06  -5.3823198220542492e+06  7.6315380130826728e+06  -6.7841754288132004e+06  9.0976188438186198e+06  -6.2018570659980336e+06  8.1203472333847117e+06  -6.2902078115342036e+06  1.2734580719741069e+07  -9.7919616414780654e+06  1.8252054679543808e+07  -1.2575621843760131e+07  2.2415134357137751e+07  -1.3014293220325319e+07  2.2036022123743959e+07  -9.6689694610040169e+06  1.9749102623805791e+07  -1.3347634551631490e+07  2.5239007266450815e+07  3.4071937788113442e+00  0.0000000000000000e+00  5.0837750482343622e+06  -8.9859643292077817e+06  -2.1202965298998603e+06  3.6763914618101524e+05  -4.1086418261697097e+06  2.1802526192958914e+06  -4.5266499790073121e+06  5.1990862472700048e+06  -5.8237823287301725e+06  4.9410414506639848e+06  -5.2964650654293243e+06  6.2421588110487787e+06  -7.2224854686931875e+06  5.4114598450069949e+06  -5.7832494710391676e+06  2.6859945067173829e+06  -4.0251166550357738e+06  3.2417217907269299e+06  -9.2399703774655536e+06  5.1594714268249078e+06  -9.7922119757231455e+06  3.0585007386968904e+06  -1.0573886706778588e+07  1.4723418114964175e+06  -8.7725841903728992e+06  -3.8103372236802354e+06  -5.7664580170093644e+06  -1.1184438606874708e+07  1.0937113812611541e+06  2.8031065654270670e+00  0.0000000000000000e+00  1.6813026398207106e+07  -1.1507718090464354e+07  1.1396643658472076e+07  -6.6130922297843480e+06  7.8851985760244234e+06  -4.7496986753056152e+06  7.2055971443305342e+06  -5.9233822139582532e+06  5.6751964397660280e+06  -5.2964650715102442e+06  7.0112177316720858e+06  -7.5917622637868077e+06  6.7424145972310631e+06  -5.3933357682971675e+06  6.3767194784219554e+06  -5.0183811823803540e+06  7.4006060492298277e+06  -7.9845045565289920e+06  1.3318205375361899e+07  -9.2403592316221334e+06  1.2734909770140542e+07  -6.9596282832664037e+06  1.3328372427551676e+07  -5.4422092300303588e+06  1.3373917493815234e+07  -5.5176394069511136e+06  1.6514140541464703e+07  -1.1583105897889391e+07  2.1556298019466929e+07  2.2831478169563786e+00  0.0000000000000000e+00  2.7188107007813058e+06  -8.4580028429510836e+06  -2.3561733894704627e+06  -1.4804720589760940e+06  -3.3324771191159259e+06  2.0200361512909420e+06  -5.7729958611820349e+06  4.0322269013455370e+06  -5.3823198747829702e+06  6.2421588449511789e+06  -7.5917622918578526e+06  5.9874963031199444e+06  -4.7142038866326660e+06  5.2937147105984762e+06  -6.3107258380924799e+06  4.5276278042693716e+06  -5.9127822362793032e+06  5.4841319141176678e+06  -7.9850706313325977e+06  3.2422124058448626e+06  -6.2902720426584110e+06  1.7010359206929200e+06  -6.6526910298261782e+06  -1.0973564752908023e+06  -5.1369179113899879e+06  -3.6910390566723067e+06  -4.5039812995849382e+06  -1.0270534118450236e+07  2.9927352399878413e+05  1.8391182175766976e+00  9.0208823937872073e-07  1.7533978056979273e+07  -1.1807737072676711e+07  1.2775375781801529e+07  -6.2498812716582380e+06  9.8723051547086574e+06  -6.4585861101861261e+06  8.8240177481757049e+06  -5.6176143593352828e+06  7.6315380661640093e+06  -7.2224855151587809e+06  6.7424146421792060e+06  -4.7142038967465134e+06  6.0341265622715540e+06  -7.9212750018079253e+06  6.8315928154014470e+06  -4.1029521230492732e+06  5.8180309128885875e+06  -5.9135402242561290e+06  7.4012849219488418e+06  -4.0251947723778747e+06  8.1200098833762715e+06  -5.3421814792567343e+06  1.0287067940254662e+07  -5.0219348087562378e+06  1.2763034504814314e+07  -7.2829813304806752e+06  1.6020219850627221e+07  -1.1310491822265455e+07  1.9580829181483690e+07  1.4632391465689620e+00  0.0000000000000000e+00  9.5958059441949904e+05  -8.9648966948310453e+06  -1.9989448309727355e+06  -2.4554917003086810e+06  -4.7221355777166709e+06  1.9091425216128754e+06  -5.5670244935044348e+06  3.2555357678562412e+06  -6.7841755866057528e+06  5.4114599453116562e+06  -5.3933358447476784e+06  5.2937147504286822e+06  -7.9212750530760093e+06  6.8044445820403676e+06  -2.4877457530120686e+06  7.6586472245553893e+05  -4.1038799402853851e+06  4.5284912130116681e+06  -5.0184707701061917e+06  2.6855087072700150e+06  -6.2014274633047897e+06  2.7567724451086558e+06  -5.6412482767043766e+06  2.4851343617584137e+05  -5.5680291485127956e+06  -2.1795918178432067e+06  -3.2333179563586023e+06  -9.7998668643061761e+06  3.4898160707059089e+05  1.1481524491989261e+00  7.4976577064942699e-09  1.8365341362510711e+07  -1.1141162164419599e+07  1.3982333002832580e+07  -7.1971794573279014e+06  1.2440576721195221e+07  -6.5304199347214745e+06  9.5514699505170863e+06  -6.2070886152931163e+06  9.0976189758384600e+06  -5.7832495373054352e+06  6.3767195761817656e+06  -6.3107259503763085e+06  6.8315929627371691e+06  -2.4877458151220772e+06  -2.5527701029305867e+05  -2.4887739626806402e+06  6.8325937580052996e+06  -6.3108211037332211e+06  6.3760832938234629e+06  -5.7826730150114214e+06  9.0975556382817067e+06  -6.2073533276331928e+06  9.5516788923508413e+06  -6.5304298046877626e+06  1.2440493770531399e+07  -7.1971293722912762e+06  1.3982337806898493e+07  -1.1141180183405573e+07  1.8365347402127013e+07  8.8692043671715748e-01  0.0000000000000000e+00  3.4898949500921770e+05  -9.7998691842572391e+06  -3.2333446069179308e+06  -2.1795449009344550e+06  -5.5680198789065778e+06  2.4837847529566713e+05  -5.6410755724808304e+06  2.7568272231884836e+06  -6.2018573624722250e+06  2.6859947020214479e+06  -5.0183814357967181e+06  4.5276280325145610e+06  -4.1029523027747637e+06  7.6586472241968883e+05  -2.4887739005637681e+06  6.8054966358107366e+06  -7.9213726036735140e+06  5.2929638622075850e+06  -5.3926324864697531e+06  5.4113936280729054e+06  -6.7845462758829370e+06  3.2558319926527990e+06  -5.5670328405757733e+06  1.9090084150285667e+06  -4.7220539324618327e+06  -2.4554815231455220e+06  -1.9989820888563131e+06  -8.9648817173715141e+06  9.5958264769961732e+05  6.7302588635903848e-01  7.7033590955826834e-09  1.9580828927839659e+07  -1.1310505613927057e+07  1.6020244435239706e+07  -7.2829756645135842e+06  1.2762954366865600e+07  -5.0218319311406342e+06  1.0287110443028744e+07  -5.3424762584603122e+06  8.1203474539113445e+06  -4.0251167769889389e+06  7.4006062535816636e+06  -5.9127823412281182e+06  5.8180309127905779e+06  -4.1038797604398723e+06  6.8325936106877355e+06  -7.9213725523975501e+06  6.0333324906190597e+06  -4.7134256576773329e+06  6.7423491298759794e+06  -7.2229517481768550e+06  7.6319195954846926e+06  -5.6176155227510659e+06  8.8238194722316787e+06  -6.4584627156455936e+06  9.8723235936678872e+06  -6.2499442737476910e+06  1.2775402345591210e+07  -1.1807728155425560e+07  1.7533968162735604e+07  5.0037203693059606e-01  0.0000000000000000e+00  2.9926988281143783e+05  -1.0270523334098076e+07  -4.5039768384410553e+06  -3.6910834174266066e+06  -5.1368597635544231e+06  -1.0973270982857670e+06  -6.6528770133625735e+06  1.7012511964860358e+06  -6.2902081521104900e+06  3.2417219619260090e+06  -7.9845047606870132e+06  5.4841319140585503e+06  -5.9135401191339241e+06  4.5284909846293489e+06  -6.3108209915270014e+06  5.2929638223553468e+06  -4.7134256475751996e+06  5.9874317220578212e+06  -7.5922865866054622e+06  6.2426036538149212e+06  -5.3823120430805748e+06  4.0319625892156214e+06  -5.7728287770262053e+06  2.0200672548136781e+06  -3.3325760495993942e+06  -1.4804294583714784e+06  -2.3561565650439002e+06  -8.4580263926082980e+06  2.7188154410125711e+06  3.6328261087934777e-01  -8.2298557378547960e-09  2.1556302070905730e+07  -1.1583104477933018e+07  1.6514118131261012e+07  -5.5176098067392604e+06  1.3373935973368721e+07  -5.4423195521386527e+06  1.3328499826723352e+07  -6.9595807942323983e+06  1.2734580806668011e+07  -9.2399703078497779e+06  1.3318205375221714e+07  -7.9850704271176122e+06  7.4012847175149620e+06  -5.0184705165100759e+06  6.3760831962108482e+06  -5.3926324099447792e+06  6.7423490849614237e+06  -7.5922865585264862e+06  7.0116859778601592e+06  -5.2964502088797912e+06  5.6748811224989528e+06  -5.9231768287304528e+06  7.2056430069537284e+06  -4.7498368764078058e+06  7.8852589675828628e+06  -6.6130622494906560e+06  1.1396601109475989e+07  -1.1507706709219845e+07  1.6813032853314053e+07  2.5650177015261050e-01  0.0000000000000000e+00  1.0937139859200176e+06  -1.1184449268816287e+07  -5.7664425370650440e+06  -3.8103269241979974e+06  -8.7726441854194682e+06  1.4724121147918915e+06  -1.0573852610788940e+07  3.0582936614256725e+06  -9.7919618329349067e+06  5.1594714262868278e+06  -9.2403593006190825e+06  3.2422122346251220e+06  -4.0251946505145910e+06  2.6855085116888024e+06  -5.7826729490056504e+06  5.4113935276043275e+06  -7.2229517017988181e+06  6.2426036198743656e+06  -5.2964502028046083e+06  4.9407068391339602e+06  -5.8235550416923584e+06  5.1991447638001116e+06  -4.5268244087194530e+06  2.1803301803403432e+06  -4.1085977190763564e+06  3.6757488269328309e+05  -2.1202802851849762e+06  -8.9859478473267592e+06  5.0837629217643123e+06  1.7519416033919169e-01  0.0000000000000000e+00  2.5239004174427059e+07  -1.3347629090085335e+07  1.9749108069266632e+07  -9.6690012828931287e+06  2.2036058476020295e+07  -1.3014271408485794e+07  2.2415010806437287e+07  -1.2575471130704224e+07  1.8252054679263029e+07  -9.7922117832746990e+06  1.2734909682324905e+07  -6.2902717020247504e+06  8.1200096631882247e+06  -6.2014271663372135e+06  9.0975555067076348e+06  -6.7845461177549781e+06  7.6319195426001018e+06  -5.3823119902457902e+06  5.6748811049401714e+06  -5.8235550260560364e+06  5.8883734768697480e+06  -4.7232832725606868e+06  4.5993017557897130e+06  -4.5482994317083359e+06  7.0487667904395452e+06  -5.5279649808328263e+06  7.7118665364362355e+06  -1.0666386502025576e+07  1.7293328492920749e+07  1.1494515081892115e-01  0.0000000000000000e+00  4.1679290613258933e+05  -8.5410326837693807e+06  -1.2321374237797419e+07  7.3207823999886122e+05  -1.5015176190239090e+07  3.0272689928398822e+06  -1.3694690242288599e+07  4.2532600426951135e+06  -1.2575622022602297e+07  3.0585006240630704e+06  -6.9596282668680223e+06  1.7010356113779000e+06  -5.3421813475416247e+06  2.7567722155262809e+06  -6.2073532865815666e+06  3.2558318887282764e+06  -5.6176155212315777e+06  4.0319625350216380e+06  -5.9231768137285654e+06  5.1991447373913117e+06  -4.7232832676255628e+06  3.9306876020765537e+06  -4.3014751030959645e+06  4.1919580000083321e+06  -4.4197748499118639e+06  2.3638054601082625e+05  -2.3273601425353740e+06  -7.9424673546391185e+06  7.4767485826483276e+06  7.1759528074932924e-02  1.1029025241772487e-08  3.7404158578802772e+07  -2.2854350142218463e+07  3.2549514346428517e+07  -2.3222395268821280e+07  3.5899443640401885e+07  -1.9696115864822865e+07  2.7545590109719120e+07  -1.3694777594646869e+07  2.2415134265982203e+07  -1.0573886293231923e+07  1.3328372214622993e+07  -6.6526905563274408e+06  1.0287067745433912e+07  -5.6412479720725445e+06  9.5516788069103435e+06  -5.5670326547430260e+06  8.8238194144156147e+06  -5.7728286556655234e+06  7.2056429735239847e+06  -4.5268243623049501e+06  4.5993017487746160e+06  -4.3014750937437713e+06  4.8786084866347127e+06  -4.6180795731344000e+06  3.8481443741226071e+06  -3.4156547497053184e+06  4.1644540530655435e+06  -9.8340853878686950e+06  1.8613158694655526e+07  4.2064117897439871e-02  0.0000000000000000e+00  -6.7954142180476636e+06  -1.9468234274794250e+06  -2.0855391473108720e+07  3.7689043025375647e+06  -2.2045306968464971e+07  7.0157472470897017e+06  -1.9696163669326723e+07  3.0273394076226884e+06  -1.3014293316251790e+07  1.4723414989249327e+06  -5.4422091907889489e+06  -1.0973568138206787e+06  -5.0219347776682675e+06  2.4851321375820177e+05  -6.5304298042662982e+06  1.9090082619205664e+06  -6.4584627240289953e+06  2.0200671727822137e+06  -4.7498369025266143e+06  2.1803301461382499e+06  -4.5482994364004061e+06  4.1919579777966836e+06  -4.6180795674942331e+06  3.1436116314609558e+06  -2.9117735368521623e+06  6.1759967472151865e+05  -5.4406919341215463e+06  -4.5669991895481199e+06  1.0937311014463715e+07  2.2705163179959211e-02  0.0000000000000000e+00  6.5943958105711922e+07  -3.6948133682472855e+07  5.0022451046644181e+07  -3.3879336823483072e+07  4.1608620122726314e+07  -2.2045332769231241e+07  3.5899482205506884e+07  -1.5015190544499116e+07  2.2036021945084058e+07  -8.7725835921236742e+06  1.3373917303819768e+07  -5.1369173985415259e+06  1.2763034366748700e+07  -5.5680287787564751e+06  1.2440493692619633e+07  -4.7220536879666690e+06  9.8723235723542366e+06  -3.3325759039193843e+06  7.8852589582743300e+06  -4.1085976155727343e+06  7.0487667677769251e+06  -4.4197747977445032e+06  3.8481443691123459e+06  -2.9117735315736015e+06  1.6476107824492590e+06  -5.1667592170854863e+06  1.0026549310157344e+06  -4.9457451872270908e+06  1.9728578683354292e+07  1.0949635021199465e-02  0.0000000000000000e+00  -2.0567373328643035e+07  2.6925705033456320e+06  -3.3790625100340754e+07  1.2845317512295568e+07  -3.3879349377805606e+07  3.7689246030276334e+06  -2.3222403623892