<?xml version="1.0"?>
<VTKFile type="UnstructuredGrid"  version="0.1"  >
<UnstructuredGrid>
<Piece  NumberOfPoints="961" NumberOfCells="1800">
<Points>
<DataArray  type="Float64"  NumberOfComponents="3"  format="ascii">-1 -1 0  -0.9333333333333333 -1 0  -0.8666666666666667 -1 0  -0.8 -1 0  -0.7333333333333334 -1 0  -0.6666666666666667 -1 0  -0.6 -1 0  -0.5333333333333333 -1 0  -0.4666666666666667 -1 0  -0.4 -1 0  -0.3333333333333334 -1 0  -0.2666666666666667 -1 0  -0.2 -1 0  -0.1333333333333333 -1 0  -0.06666666666666665 -1 0  0 -1 0  0.06666666666666665 -1 0  0.1333333333333333 -1 0  0.2 -1 0  0.2666666666666666 -1 0  0.3333333333333333 -1 0  0.3999999999999999 -1 0  0.4666666666666666 -1 0  0.5333333333333334 -1 0  0.6000000000000001 -1 0  0.6666666666666667 -1 0  0.7333333333333334 -1 0  0.8 -1 0  0.8666666666666667 -1 0  0.9333333333333333 -1 0  1 -1 0  -1 -0.9333333333333333 0  -0.9333333333333333 -0.9333333333333333 0  -0.8666666666666667 -0.9333333333333333 0  -0.8 -0.9333333333333333 0  -0.7333333333333334 -0.9333333333333333 0  -0.6666666666666667 -0.9333333333333333 0  -0.6 -0.9333333333333333 0  -0.5333333333333333 -0.9333333333333333 0  -0.4666666666666667 -0.9333333333333333 0  -0.4 -0.9333333333333333 0  -0.3333333333333334 -0.9333333333333333 0  -0.2666666666666667 -0.9333333333333333 0  -0.2 -0.9333333333333333 0  -0.1333333333333333 -0.9333333333333333 0  -0.06666666666666665 -0.9333333333333333 0  0 -0.9333333333333333 0  0.06666666666666665 -0.9333333333333333 0  0.1333333333333333 -0.9333333333333333 0  0.2 -0.9333333333333333 0  0.2666666666666666 -0.9333333333333333 0  0.3333333333333333 -0.9333333333333333 0  0.3999999999999999 -0.9333333333333333 0  0.4666666666666666 -0.9333333333333333 0  0.5333333333333334 -0.9333333333333333 0  0.6000000000000001 -0.9333333333333333 0  0.6666666666666667 -0.9333333333333333 0  0.7333333333333334 -0.9333333333333333 0  0.8 -0.9333333333333333 0  0.8666666666666667 -0.9333333333333333 0  0.9333333333333333 -0.9333333333333333 0  1 -0.9333333333333333 0  -1 -0.8666666666666667 0  -0.9333333333333333 -0.8666666666666667 0  -0.8666666666666667 -0.8666666666666667 0  -0.8 -0.8666666666666667 0  -0.7333333333333334 -0.8666666666666667 0  -0.6666666666666667 -0.8666666666666667 0  -0.6 -0.8666666666666667 0  -0.5333333333333333 -0.8666666666666667 0  -0.4666666666666667 -0.8666666666666667 0  -0.4 -0.8666666666666667 0  -0.3333333333333334 -0.8666666666666667 0  -0.2666666666666667 -0.8666666666666667 0  -0.2 -0.8666666666666667 0  -0.1333333333333333 -0.8666666666666667 0  -0.06666666666666665 -0.8666666666666667 0  0 -0.8666666666666667 0  0.06666666666666665 -0.8666666666666667 0  0.1333333333333333 -0.8666666666666667 0  0.2 -0.8666666666666667 0  0.2666666666666666 -0.8666666666666667 0  0.3333333333333333 -0.8666666666666667 0  0.3999999999999999 -0.8666666666666667 0  0.4666666666666666 -0.8666666666666667 0  0.5333333333333334 -0.8666666666666667 0  0.6000000000000001 -0.8666666666666667 0  0.6666666666666667 -0.8666666666666667 0  0.7333333333333334 -0.8666666666666667 0  0.8 -0.8666666666666667 0  0.8666666666666667 -0.8666666666666667 0  0.9333333333333333 -0.8666666666666667 0  1 -0.8666666666666667 0  -1 -0.8 0  -0.9333333333333333 -0.8 0  -0.8666666666666667 -0.8 0  -0.8 -0.8 0  -0.7333333333333334 -0.8 0  -0.6666666666666667 -0.8 0  -0.6 -0.8 0  -0.5333333333333333 -0.8 0  -0.4666666666666667 -0.8 0  -0.4 -0.8 0  -0.3333333333333334 -0.8 0  -0.2666666666666667 -0.8 0  -0.2 -0.8 0  -0.1333333333333333 -0.8 0  -0.06666666666666665 -0.8 0  0 -0.8 0  0.06666666666666665 -0.8 0  0.1333333333333333 -0.8 0  0.2 -0.8 0  0.2666666666666666 -0.8 0  0.3333333333333333 -0.8 0  0.3999999999999999 -0.8 0  0.4666666666666666 -0.8 0  0.5333333333333334 -0.8 0  0.6000000000000001 -0.8 0  0.6666666666666667 -0.8 0  0.7333333333333334 -0.8 0  0.8 -0.8 0  0.8666666666666667 -0.8 0  0.9333333333333333 -0.8 0  1 -0.8 0  -1 -0.7333333333333334 0  -0.9333333333333333 -0.7333333333333334 0  -0.8666666666666667 -0.7333333333333334 0  -0.8 -0.7333333333333334 0  -0.7333333333333334 -0.7333333333333334 0  -0.6666666666666667 -0.7333333333333334 0  -0.6 -0.7333333333333334 0  -0.5333333333333333 -0.7333333333333334 0  -0.4666666666666667 -0.7333333333333334 0  -0.4 -0.7333333333333334 0  -0.3333333333333334 -0.7333333333333334 0  -0.2666666666666667 -0.7333333333333334 0  -0.2 -0.7333333333333334 0  -0.1333333333333333 -0.7333333333333334 0  -0.06666666666666665 -0.7333333333333334 0  0 -0.7333333333333334 0  0.06666666666666665 -0.7333333333333334 0  0.1333333333333333 -0.7333333333333334 0  0.2 -0.7333333333333334 0  0.2666666666666666 -0.7333333333333334 0  0.3333333333333333 -0.7333333333333334 0  0.3999999999999999 -0.7333333333333334 0  0.4666666666666666 -0.7333333333333334 0  0.5333333333333334 -0.7333333333333334 0  0.6000000000000001 -0.7333333333333334 0  0.6666666666666667 -0.7333333333333334 0  0.7333333333333334 -0.7333333333333334 0  0.8 -0.7333333333333334 0  0.8666666666666667 -0.7333333333333334 0  0.9333333333333333 -0.7333333333333334 0  1 -0.7333333333333334 0  -1 -0.6666666666666667 0  -0.9333333333333333 -0.6666666666666667 0  -0.8666666666666667 -0.6666666666666667 0  -0.8 -0.6666666666666667 0  -0.7333333333333334 -0.6666666666666667 0  -0.6666666666666667 -0.6666666666666667 0  -0.6 -0.6666666666666667 0  -0.5333333333333333 -0.6666666666666667 0  -0.4666666666666667 -0.6666666666666667 0  -0.4 -0.6666666666666667 0  -0.3333333333333334 -0.6666666666666667 0  -0.2666666666666667 -0.6666666666666667 0  -0.2 -0.6666666666666667 0  -0.1333333333333333 -0.6666666666666667 0  -0.06666666666666665 -0.6666666666666667 0  0 -0.6666666666666667 0  0.06666666666666665 -0.6666666666666667 0  0.1333333333333333 -0.6666666666666667 0  0.2 -0.6666666666666667 0  0.2666666666666666 -0.6666666666666667 0  0.3333333333333333 -0.6666666666666667 0  0.3999999999999999 -0.6666666666666667 0  0.4666666666666666 -0.6666666666666667 0  0.5333333333333334 -0.6666666666666667 0  0.6000000000000001 -0.6666666666666667 0  0.6666666666666667 -0.6666666666666667 0  0.7333333333333334 -0.6666666666666667 0  0.8 -0.6666666666666667 0  0.8666666666666667 -0.6666666666666667 0  0.9333333333333333 -0.6666666666666667 0  1 -0.6666666666666667 0  -1 -0.6 0  -0.9333333333333333 -0.6 0  -0.8666666666666667 -0.6 0  -0.8 -0.6 0  -0.7333333333333334 -0.6 0  -0.6666666666666667 -0.6 0  -0.6 -0.6 0  -0.5333333333333333 -0.6 0  -0.4666666666666667 -0.6 0  -0.4 -0.6 0  -0.3333333333333334 -0.6 0  -0.2666666666666667 -0.6 0  -0.2 -0.6 0  -0.1333333333333333 -0.6 0  -0.06666666666666665 -0.6 0  0 -0.6 0  0.06666666666666665 -0.6 0  0.1333333333333333 -0.6 0  0.2 -0.6 0  0.2666666666666666 -0.6 0  0.3333333333333333 -0.6 0  0.3999999999999999 -0.6 0  0.4666666666666666 -0.6 0  0.5333333333333334 -0.6 0  0.6000000000000001 -0.6 0  0.6666666666666667 -0.6 0  0.7333333333333334 -0.6 0  0.8 -0.6 0  0.8666666666666667 -0.6 0  0.9333333333333333 -0.6 0  1 -0.6 0  -1 -0.5333333333333333 0  -0.9333333333333333 -0.5333333333333333 0  -0.8666666666666667 -0.5333333333333333 0  -0.8 -0.5333333333333333 0  -0.7333333333333334 -0.5333333333333333 0  -0.6666666666666667 -0.5333333333333333 0  -0.6 -0.5333333333333333 0  -0.5333333333333333 -0.5333333333333333 0  -0.4666666666666667 -0.5333333333333333 0  -0.4 -0.5333333333333333 0  -0.3333333333333334 -0.5333333333333333 0  -0.2666666666666667 -0.5333333333333333 0  -0.2 -0.5333333333333333 0  -0.1333333333333333 -0.5333333333333333 0  -0.06666666666666665 -0.5333333333333333 0  0 -0.5333333333333333 0  0.06666666666666665 -0.5333333333333333 0  0.1333333333333333 -0.5333333333333333 0  0.2 -0.5333333333333333 0  0.2666666666666666 -0.5333333333333333 0  0.3333333333333333 -0.5333333333333333 0  0.3999999999999999 -0.5333333333333333 0  0.4666666666666666 -0.5333333333333333 0  0.5333333333333334 -0.5333333333333333 0  0.6000000000000001 -0.5333333333333333 0  0.6666666666666667 -0.5333333333333333 0  0.7333333333333334 -0.5333333333333333 0  0.8 -0.5333333333333333 0  0.8666666666666667 -0.5333333333333333 0  0.9333333333333333 -0.5333333333333333 0  1 -0.5333333333333333 0  -1 -0.4666666666666667 0  -0.9333333333333333 -0.4666666666666667 0  -0.8666666666666667 -0.4666666666666667 0  -0.8 -0.4666666666666667 0  -0.7333333333333334 -0.4666666666666667 0  -0.6666666666666667 -0.4666666666666667 0  -0.6 -0.4666666666666667 0  -0.5333333333333333 -0.4666666666666667 0  -0.4666666666666667 -0.4666666666666667 0  -0.4 -0.4666666666666667 0  -0.3333333333333334 -0.4666666666666667 0  -0.2666666666666667 -0.4666666666666667 0  -0.2 -0.4666666666666667 0  -0.1333333333333333 -0.4666666666666667 0  -0.06666666666666665 -0.4666666666666667 0  0 -0.4666666666666667 0  0.06666666666666665 -0.4666666666666667 0  0.1333333333333333 -0.4666666666666667 0  0.2 -0.4666666666666667 0  0.2666666666666666 -0.4666666666666667 0  0.3333333333333333 -0.4666666666666667 0  0.3999999999999999 -0.4666666666666667 0  0.4666666666666666 -0.4666666666666667 0  0.5333333333333334 -0.4666666666666667 0  0.6000000000000001 -0.4666666666666667 0  0.6666666666666667 -0.4666666666666667 0  0.7333333333333334 -0.4666666666666667 0  0.8 -0.4666666666666667 0  0.8666666666666667 -0.4666666666666667 0  0.9333333333333333 -0.4666666666666667 0  1 -0.4666666666666667 0  -1 -0.4 0  -0.9333333333333333 -0.4 0  -0.8666666666666667 -0.4 0  -0.8 -0.4 0  -0.7333333333333334 -0.4 0  -0.6666666666666667 -0.4 0  -0.6 -0.4 0  -0.5333333333333333 -0.4 0  -0.4666666666666667 -0.4 0  -0.4 -0.4 0  -0.3333333333333334 -0.4 0  -0.2666666666666667 -0.4 0  -0.2 -0.4 0  -0.1333333333333333 -0.4 0  -0.06666666666666665 -0.4 0  0 -0.4 0  0.06666666666666665 -0.4 0  0.1333333333333333 -0.4 0  0.2 -0.4 0  0.2666666666666666 -0.4 0  0.3333333333333333 -0.4 0  0.3999999999999999 -0.4 0  0.4666666666666666 -0.4 0  0.5333333333333334 -0.4 0  0.6000000000000001 -0.4 0  0.6666666666666667 -0.4 0  0.7333333333333334 -0.4 0 
[...]
<PointData  Scalars="f_24"> 
<DataArray  type="Float64"  Name="f_24"  format="ascii">0.0000000000000000e+00  0.0000000000000000e+00  0.0000000000000000e+00  0.0000000000000000e+00  0.0000000000000000e+00  0.0000000000000000e+00  0.0000000000000000e+00  0.0000000000000000e+00  0.0000000000000000e+00  0.0000000000000000e+00  0.0000000000000000e+00  0.0000000000000000e+00  0.0000000000000000e+00  0.0000000000000000e+00  0.0000000000000000e+00  0.0000000000000000e+00  0.0000000000000000e+00  0.0000000000000000e+00  0.0000000000000000e+00  0.0000000000000000e+00  0.0000000000000000e+00  0.0000000000000000e+00  0.0000000000000000e+00  0.0000000000000000e+00  0.0000000000000000e+00  1.6488317202522294e-07  0.0000000000000000e+00  -1.9579969819089201e-07  0.0000000000000000e+00  0.0000000000000000e+00  1.1735151299588631e+01  0.0000000000000000e+00  1.0726132394360762e+07  1.1730176002637481e+07  1.7069789436012451e+07  1.2319421179683328e+07  1.6865214938528135e+07  9.6591351364499591e+06  1.6056429014150925e+07  6.8847024250808721e+06  1.5030601482610129e+07  4.9534264344767155e+06  1.4667302220942304e+07  3.0205976257286109e+06  1.5278681030651838e+07  1.5745185963859218e+06  1.5970334916755941e+07  1.0691787354689811e+06  1.6970822596202526e+07  1.0180704038234488e+06  1.8587951173860542e+07  1.6499270179017351e+06  2.1597249670488749e+07  1.0397621914594194e+06  3.1589992437621824e+07  -5.0132305972072789e+06  5.5079132642802335e+07  -1.6542509937861301e+07  9.1237105562429443e+07  -1.0168136151474671e+07  1.9838771532246879e+08  1.0246974748548576e+01  0.0000000000000000e+00  1.1730175984118367e+07  1.2916347640331369e+07  5.2452034604868805e+06  2.3859216205111458e+06  -3.3886305888980036e+06  -3.1039517446610592e+06  -7.5161821987114390e+06  -6.0221115317824017e+06  -8.3492144973034738e+06  -7.0301266290262612e+06  -9.1781244978700038e+06  -6.7065705687194215e+06  -9.5145006752644423e+06  -7.1864358839173764e+06  -8.9948390014513060e+06  -7.8789997413876411e+06  -9.1071775127448849e+06  -8.2116349329979969e+06  -9.2484420560638532e+06  -8.8588606756258309e+06  -1.0579716330978399e+07  -6.5335977814719938e+06  -1.8303493539359771e+07  -9.6002351661707391e+05  -2.9878081509911090e+07  2.8913276190599902e+06  -2.5838035301649366e+07  -1.5917591969914269e+07  -1.0168143538497256e+07  8.9050384658015673e+00  -9.0683627389428463e-09  1.7069789428071104e+07  5.2452034637471465e+06  1.9556030618495683e+06  -4.0269455971535435e+06  1.3337343650935891e+06  -4.1686769157026475e+06  3.5987014743851549e+06  -1.9262798346234935e+06  6.2472800313537987e+06  -1.9827935366239569e+06  9.1232855727566294e+06  -2.3001890739399632e+06  1.0181863768114781e+07  -2.0538761160955892e+06  1.1157944347366368e+07  -3.0730910010416941e+06  1.2868749050185241e+07  -4.0720278008423005e+06  1.3361157007943453e+07  -4.9927703847721741e+06  1.6207260045149980e+07  -1.0189669323271114e+07  2.7070402794543877e+07  -1.6927594679212503e+07  4.1853285556736477e+07  -2.7329061226763643e+07  5.0066687206098869e+07  -2.5838034793616962e+07  9.1237106997344226e+07  7.6994325819121965e+00  0.0000000000000000e+00  1.2319421122214474e+07  2.3859216384563143e+06  -4.0269456025196267e+06  6.1172325657268567e+05  -4.1150785731874187e+06  4.2267492804482975e+05  -3.0985772957286909e+06  -1.9846080380782660e+05  -5.0316418570416691e+06  -1.8315616682990824e+05  -5.9609365498795221e+06  -1.7088580799161908e+06  -5.6433059053600095e+06  -2.4965507901612613e+06  -6.4144459777687462e+06  -2.2660876094374736e+06  -6.4930238703337414e+06  -3.5304120561762913e+06  -5.0459586103262231e+06  -3.6274977835136196e+06  -8.4429503888542168e+06  2.2609454793112358e+05  -1.9463982241689324e+07  3.0383113325177464e+06  -2.7860673806649942e+07  1.1034188947845826e+07  -2.7329068998411298e+07  2.8913328641915848e+06  -1.6542516122385012e+07  6.6205956793590310e+00  -4.1772805309747351e-09  1.6865214922289725e+07  -3.3886305547961439e+06  1.3337343710471399e+06  -4.1150785765706445e+06  1.2031658153748410e+06  -2.7761194961040444e+06  2.7177244970486616e+06  -4.1346802685680124e+06  5.3799459011556171e+06  -3.7993178278889153e+06  6.1680876183794998e+06  -3.0681248639748166e+06  7.8818750890122857e+06  -4.1701319915913907e+06  1.0029458880126957e+07  -4.8693527316684583e+06  1.0273469713433836e+07  -4.5583278231251081e+06  1.0711194151645130e+07  -7.6509820262826011e+06  1.7782505773694195e+07  -1.2886733838377792e+07  2.9238423186795339e+07  -1.8583193015007935e+07  3.4263938995424666e+07  -2.7860683194764659e+07  4.1853294399775714e+07  -2.9878082467036650e+07  5.5079132152410500e+07  5.6593129338293950e+00  0.0000000000000000e+00  9.6591350528794751e+06  -3.1039516936347736e+06  -4.1686769634608589e+06  4.2267493865626433e+05  -2.7761195004809159e+06  2.1248438090720545e+06  -4.2783380255023930e+06  3.0797483997150841e+06  -4.0661076386874411e+06  1.5703927056288468e+06  -4.1073004521579458e+06  1.5286848123528189e+06  -5.4604836057744501e+06  1.4725634809090286e+06  -5.5038129887256343e+06  9.8154318780961170e+04  -4.2739060728241717e+06  -1.0515009489821340e+06  -4.6814740340745924e+06  9.8540564939900383e+05  -1.1063821251565758e+07  2.1230696674105376e+06  -1.6737701920504864e+07  5.3407697318088394e+06  -1.8583215508077711e+07  3.0383287129407637e+06  -1.6927601298763316e+07  -9.6002426704782574e+05  -5.0132327021095995e+06  4.8067179723115041e+00  2.4952850836343768e-09  1.6056429005515663e+07  -7.5161821483301837e+06  3.5987014696301380e+06  -3.0985772766022813e+06  2.7177245012127622e+06  -4.2783380301952744e+06  3.6727624606934413e+06  -3.8106749828290567e+06  3.6370123033612403e+06  -3.8511435682198778e+06  5.8881326199841453e+06  -4.8235714756027665e+06  7.2603064180366350e+06  -4.6350585543929869e+06  7.8696244820674090e+06  -4.6967500615026895e+06  8.4693272554098386e+06  -5.5530676378627047e+06  1.0948767042021168e+07  -8.8562616294442918e+06  1.8367523690640740e+07  -1.1578455310296889e+07  2.2423419023625962e+07  -1.6737740992846370e+07  2.9238455390461974e+07  -1.9463988725245580e+07  2.7070397061283682e+07  -1.8303487333461866e+07  3.1589991437413387e+07  4.0542919442323226e+00  0.0000000000000000e+00  6.8847023145737015e+06  -6.0221114597357148e+06  -1.9262799132339577e+06  -1.9846077545043052e+05  -4.1346803115553940e+06  3.0797484180234661e+06  -3.8106749905430116e+06  3.1030866176807885e+06  -3.9868957222917066e+06  4.2561312633495554e+06  -4.9233166930520311e+06  3.3201915921611870e+06  -4.6559839232980404e+06  2.6846992766471445e+06  -5.1409613558587534e+06  2.2718287197222039e+06  -4.4293486066462975e+06  1.3913607996247406e+06  -5.7813009480833355e+06  2.4841797552513061e+06  -1.0483810481708786e+07  3.3669893453732007e+06  -1.1578528130874848e+07  2.1231282201915970e+06  -1.2886746783674944e+07  2.2608076483378565e+05  -1.0189658817683360e+07  -6.5335989623055262e+06  1.0397579205563708e+06  3.3938637072054756e+00  -1.9463624146882604e-08  1.5030601483307978e+07  -8.3492144237776324e+06  6.2472800148046333e+06  -5.0316418297553714e+06  5.3799459202842675e+06  -4.0661076349670147e+06  3.6370123092168658e+06  -3.9868957263926426e+06  4.8338207465268904e+06  -4.8318783880032692e+06  4.6870426448670570e+06  -4.4537325080581885e+06  6.3103989610406216e+06  -5.6107221731332671e+06  7.5237603148760460e+06  -5.1290493337237518e+06  6.7145430396494782e+06  -5.2053266889951788e+06  1.0523086298124406e+07  -8.1157457577535817e+06  1.5056104459429670e+07  -1.0483934967015823e+07  1.8367625936510637e+07  -1.1063839207417050e+07  1.7782475854286723e+07  -8.4429239307438657e+06  1.6207255650110055e+07  -1.0579720576082563e+07  2.1597252469426967e+07  2.8176097340892499e+00  0.0000000000000000e+00  4.9534263019331992e+06  -7.0301265425633946e+06  -1.9827936647178000e+06  -1.8315609438232164e+05  -3.7993179127288605e+06  1.5703927335921046e+06  -3.8511436064624581e+06  4.2561312851446113e+06  -4.8318784009128287e+06  4.0811832104372657e+06  -4.3816990030466998e+06  5.1620878106311895e+06  -5.9733931296244534e+06  4.4753731969166286e+06  -4.7833149800899224e+06  2.2211750200166586e+06  -3.3293365892270682e+06  2.6812460346889547e+06  -7.6427097685491964e+06  4.2612038122235034e+06  -8.1159527739421586e+06  2.4843510941490154e+06  -8.8562901677934006e+06  9.8534777108199894e+05  -7.6509329095812459e+06  -3.6275059640764804e+06  -4.9927838255737443e+06  -8.8588514654147048e+06  1.6499242083671899e+06  2.3180545776965209e+00  3.9598199541539497e-09  1.4667302234570332e+07  -9.1781244186395146e+06  9.1232855738712251e+06  -5.9609365143097173e+06  6.1680876273568366e+06  -4.1073004311455614e+06  5.8881326478994172e+06  -4.9233167055784194e+06  4.6870426594350003e+06  -4.3816990080942465e+06  5.7987421476090970e+06  -6.2781044388760859e+06  5.5766174546379708e+06  -4.4597536800385173e+06  5.2742072449174076e+06  -4.1493715670656781e+06  6.1206837518707598e+06  -6.6035387787278015e+06  1.1013753447813138e+07  -7.6430313350531179e+06  1.0523358409363430e+07  -5.7813402323310468e+06  1.0948661863487789e+07  -4.6813828343609776e+06  1.0711179027758166e+07  -5.0459830467742374e+06  1.3361175675527113e+07  -9.2484431015430950e+06  1.8587948017610576e+07  1.8880699413749256e+00  0.0000000000000000e+00  3.0205974537643930e+06  -6.7065704478499210e+06  -2.3001892580538127e+06  -1.7088579867523755e+06  -3.0681249824947305e+06  1.5286848792479946e+06  -4.8235715755030578e+06  3.3201916367655857e+06  -4.4537325516457083e+06  5.1620878386591999e+06  -6.2781044620716618e+06  4.9517957547726184e+06  -3.8987455522077014e+06  4.3778980271564266e+06  -5.2194569798724297e+06  3.7442263335402445e+06  -4.8899023659983231e+06  4.5365847851157729e+06  -6.6040068994585285e+06  2.6816517533489414e+06  -5.2053798055119747e+06  1.3911830309162058e+06  -5.5529142280308539e+06  -1.0515249640982861e+06  -4.5583763296472281e+06  -3.5303750691735153e+06  -4.0720319821175095e+06  -8.2116435642479369e+06  1.0180729746607048e+06  1.5208756084266866e+00  3.2414659167612732e-06  1.5278681073759817e+07  -9.5145005931018963e+06  1.0181863772533102e+07  -5.6433058425987670e+06  7.8818751093981350e+06  -5.4604836002275692e+06  7.2603064665663298e+06  -4.6559839249238586e+06  6.3103990049576433e+06  -5.9733931680709803e+06  5.5766174918194665e+06  -3.8987455605858718e+06  4.9907348636276908e+06  -6.5508243089897064e+06  5.6503080138157438e+06  -3.3926704111524513e+06  4.8112611842307346e+06  -4.8905291910975426e+06  6.1212451518856343e+06  -3.3294011891030977e+06  6.7142640650066277e+06  -4.4291049458411001e+06  8.4692922696403954e+06  -4.2739911764086029e+06  1.0273536103072632e+07  -6.4930285314270379e+06  1.2868728799894061e+07  -9.1071659903650712e+06  1.6970822919994187e+07  1.2100389773986939e+00  0.0000000000000000e+00  1.5745183664717306e+06  -7.1864357371708564e+06  -2.0538763456708083e+06  -2.4965506636002753e+06  -4.1701321901733764e+06  1.4725636056834655e+06  -4.6350587070936523e+06  2.6846993620605953e+06  -5.6107223036054950e+06  4.4753732798531204e+06  -4.4597537432470247e+06  4.3778980600915235e+06  -6.5508243513739621e+06  5.6271732093246700e+06  -2.0576264230485074e+06  6.3310965020691673e+05  -3.3934376780833658e+06  3.7449403372885934e+06  -4.1494456524474593e+06  2.2207732837194423e+06  -5.1286940698402831e+06  2.2717836096051224e+06  -4.6968931314260047e+06  9.8266107382632734e+04  -4.8693606982126860e+06  -2.2661261976815364e+06  -3.0730692913274085e+06  -7.8789976369899800e+06  1.0691719083935195e+06  9.4947515502449453e-01  7.4976577064942699e-09  1.5970334989281612e+07  -8.9948388935611974e+06  1.1157944364005083e+07  -6.4144459247597549e+06  1.0029458948936628e+07  -5.5038129913416514e+06  7.8696245539475596e+06  -5.1409613904899163e+06  7.5237604240809232e+06  -4.7833150349176507e+06  5.2742073257817840e+06  -5.2194570727482978e+06  5.6503081356690200e+06  -2.0576264744331532e+06  -2.1030456703368513e+05  -2.0584767104557722e+06  5.6511357524620388e+06  -5.2195357606906379e+06  5.2736811462723585e+06  -4.7828382745391643e+06  7.5237080465094037e+06  -5.1411802967777802e+06  7.8697973403031351e+06  -5.5038211533990558e+06  1.0029390352128170e+07  -6.4144045064813439e+06  1.1157948336770589e+07  -8.9948537945271339e+06  1.5970339983796559e+07  7.3344695622428946e-01  0.0000000000000000e+00  1.0691784313972862e+06  -7.8789995554952705e+06  -3.0730913302504160e+06  -2.2660873993163388e+06  -4.8693530326263718e+06  9.8154500247413438e+04  -4.6967503120905496e+06  2.2718289088372840e+06  -5.1290495788852489e+06  2.2211751815151460e+06  -4.1493717766201068e+06  3.7442265222891993e+06  -3.3926705597712835e+06  6.3310965017483244e+05  -2.0584766590552863e+06  5.6280432148025697e+06  -6.5509050217286479e+06  4.3772771062188558e+06  -4.4591720946934801e+06  4.4753184382092701e+06  -5.6110288484894754e+06  2.6849443278629160e+06  -4.6350656097816834e+06  1.4724527050230871e+06  -4.1700646728852568e+06  -2.4965422475001095e+06  -2.0539071564184232e+06  -7.1864233514236649e+06  1.5745200644503178e+06  5.5656490410493442e-01  0.0000000000000000e+00  1.6970822710241195e+07  -9.1071773955047894e+06  1.2868749130364666e+07  -6.4930238459035717e+06  1.0273469832264677e+07  -4.2739061008276632e+06  8.4693274176991861e+06  -4.4293487161944304e+06  6.7145432220430141e+06  -3.3293366901044995e+06  6.1206839208824839e+06  -4.8899024528046222e+06  4.8112611841555387e+06  -3.3934375293705626e+06  5.6511356306182519e+06  -6.5509049793452080e+06  4.9900781988207567e+06  -3.8981019886828871e+06  5.5765633158220444e+06  -5.9737787237244966e+06  6.3107145141157936e+06  -4.6559848870219104e+06  7.2601425004627155e+06  -5.4603815579851046e+06  7.8818903576643458e+06  -5.6433579427514682e+06  1.0181885739700867e+07  -9.5144932189005632e+06  1.5278672891624451e+07  4.1378721916692091e-01  0.0000000000000000e+00  1.0180699635488128e+06  -8.2116346460293615e+06  -4.0720282929339441e+06  -3.5304117537044124e+06  -4.5583282437649583e+06  -1.0515006705184332e+06  -5.5530680288138259e+06  1.3913610551984371e+06  -5.2053269706375860e+06  2.6812461762669738e+06  -6.6035389475606633e+06  4.5365847850691220e+06  -4.8905291041479837e+06  3.7449401484231041e+06  -5.2195356678702412e+06  4.3772770732675698e+06  -3.8981019803081262e+06  4.9517423488746593e+06  -6.2785380324023124e+06  5.1624556774136992e+06  -4.4537260751473568e+06  3.3199730614347165e+06  -4.8234334037335021e+06  1.5287106005923343e+06  -3.0682067939608349e+06  -1.7088227577919858e+06  -2.3001753449409516e+06  -6.7065899224540591e+06  3.0206013737425269e+06  3.0041987326946901e-01  -4.1149278689273980e-09  1.8587951367985975e+07  -9.2484419272976723e+06  1.3361157143205937e+07  -5.0459585686092647e+06  1.0711194309595134e+07  -4.6814740662382338e+06  1.0948767217396896e+07  -5.7813009608411603e+06  1.0523086370019171e+07  -7.6427097109906012e+06  1.1013753447698606e+07  -6.6040067305820100e+06  6.1212449828111045e+06  -4.1494454427390476e+06  5.2736810655319262e+06  -4.4591720314271897e+06  5.5765632786692567e+06  -6.2785380091995886e+06  5.7991293680715123e+06  -4.3816867173056919e+06  4.6867819049403071e+06  -4.9231468603882445e+06  5.8881705744151222e+06  -4.1074147178086867e+06  6.1681375687060338e+06  -5.9609117218316430e+06  9.1232503875893783e+06  -9.1781150068158899e+06  1.4667307572679343e+07  2.1211648170034222e-01  0.0000000000000000e+00  1.6499263623148156e+06  -8.8588602824049238e+06  -4.9927710242902962e+06  -3.6274974468273972e+06  -7.6509825230305791e+06  9.8540590903014294e+05  -8.8562619718037378e+06  2.4841798497075546e+06  -8.1157459160782713e+06  4.2612038117782483e+06  -7.6430313921049731e+06  2.6816516117480700e+06  -3.3294010883010784e+06  2.2207731219881414e+06  -4.7828382199287210e+06  4.4753183551356541e+06  -5.9737786853493797e+06  5.1624556493527107e+06  -4.3816867122634230e+06  4.0809065003760243e+06  -4.8316904438207652e+06  4.2561796759237628e+06  -3.8512878527057292e+06  1.5704568734057061e+06  -3.7992814379652170e+06  -1.8320923765904715e+05  -1.9827802310031813e+06  -7.0301129127212036e+06  4.9534162738388926e+06  1.4487841110603256e-01  0.0000000000000000e+00  2.1597249912451107e+07  -1.0579716059607806e+07  1.6207260153285630e+07  -8.4429502461472861e+06  1.7782505916136209e+07  -1.1063821169919033e+07  1.8367523765130758e+07  -1.0483810333478786e+07  1.5056104459198145e+07  -8.1159526147952126e+06  1.0523358336740049e+07  -5.2053795238210736e+06  6.7142638828922361e+06  -5.1286938242698424e+06  7.5237079376749443e+06  -5.6110287177405376e+06  6.3107144703611638e+06  -4.4537260314726559e+06  4.6867818904077047e+06  -4.8316904309053235e+06  4.8338732843302814e+06  -3.9870576584079769e+06  3.6370865212326096e+06  -4.0660592887324225e+06  5.3798744742879299e+06  -5.0316232991726464e+06  6.2473030494287359e+06  -8.3492342432916900e+06  1.5030603819243368e+07  9.5054832127741143e-02  0.0000000000000000e+00  1.0397612823256819e+06  -6.5335973186384989e+06  -1.0189670115594832e+07  2.2609487533133259e+05  -1.2886734375368915e+07  2.1230698266578452e+06  -1.1578455600443799e+07  3.3669893445436493e+06  -1.0483935114910228e+07  2.4843509993504030e+06  -5.7813402187544918e+06  1.3911827751233049e+06  -4.4291048368819663e+06  2.2717834197574165e+06  -5.1411802627990134e+06  2.6849442419369821e+06  -4.6559848857406136e+06  3.3199730166336000e+06  -4.9231468479633071e+06  4.2561796540930541e+06  -3.9870576543127829e+06  3.1031645002951883e+06  -3.8106196039392757e+06  3.0796633229012117e+06  -4.1346586852933872e+06  -1.9842750036681231e+05  -1.9263112885253048e+06  -6.0221076890028492e+06  6.8847093219675943e+06  5.9342197189030957e-02  2.2058050483544975e-08  3.1589992612837769e+07  -1.8303493016718883e+07  2.7070402938508250e+07  -1.9463982025474675e+07  2.9238423345489215e+07  -1.6737701690758327e+07  2.2423419021802858e+07  -1.1578527837261215e+07  1.8367625861133579e+07  -8.8562898257906120e+06  1.0948661687388102e+07  -5.5529138364631291e+06  8.4692921084988732e+06  -4.6968928795237215e+06  7.8697972696166895e+06  -4.6350654561289959e+06  7.2601424526195312e+06  -4.8234333033989919e+06  5.8881705467419447e+06  -3.8512878143456993e+06  3.6370865154144359e+06  -3.8106195962217688e+06  3.6726722352156965e+06  -4.2783143977126535e+06  2.7177654607007746e+06  -3.0986173788765050e+06  3.5987050359616778e+06  -7.5161659937617648e+06  1.6056420475987285e+07  3.4785306506558374e-02  0.0000000000000000e+00  -5.0132319454267351e+06  -9.6002283530107664e+05  -1.6927595741993826e+07  3.0383116135017690e+06  -1.8583193585762568e+07  5.3407697328028018e+06  -1.6737741223152613e+07  2.1231280568005107e+06  -1.1063839286734525e+07  9.8534751260713930e+05  -4.6813828018667810e+06  -1.0515252440278360e+06  -4.2739911506531751e+06  9.8265923477898221e+04  -5.5038211530092824e+06  1.4724525784308040e+06  -5.4603815648820950e+06  1.5287105327780636e+06  -4.1074147393800961e+06  1.5704568451426637e+06  -4.0660592925898521e+06  3.0796633045520959e+06  -4.2783143930236222e+06  2.1248877192513244e+06  -2.7761651216269732e+06  4.2267840134092228e+05  -4.1686542473976957e+06  -3.1039664996932768e+06  9.6591341583342869e+06  1.8776242079341792e-02  0.0000000000000000e+00  5.5079132648365587e+07  -2.9878080693023060e+07  4.1853285813942529e+07  -2.7860673336015441e+07  3.4263938985181071e+07  -1.8583214921950780e+07  2.9238455237191342e+07  -1.2886746245778400e+07  1.7782475706503097e+07  -7.6509324148452822e+06  1.0711178870614788e+07  -4.5583759055347024e+06  1.0273535988875892e+07  -4.8693603924417412e+06  1.0029390287671415e+07  -4.1700644707140042e+06  7.8818903400082234e+06  -3.0682066735174959e+06  6.1681375609790282e+06  -3.7992813523923559e+06  5.3798744555377262e+06  -4.1346586421427811e+06  2.7177654565824405e+06  -2.7761651172457389e+06  1.2031691343173811e+06  -4.1150514111562944e+06  1.3337147541171161e+06  -3.3886317825057018e+06  1.6865222099930219e+07  9.0549006941270226e-03  0.0000000000000000e+00  -1.6542512252506025e+07  2.8913285463213678e+06  -2.7329062373716302e+07  1.1034188933611972e+07  -2.7860683717982870e+07  3.0383284010910168e+06  -1.946398