<?xml version="1.0"?>
<VTKFile type="UnstructuredGrid"  version="0.1"  >
<UnstructuredGrid>
<Piece  NumberOfPoints="961" NumberOfCells="1800">
<Points>
<DataArray  type="Float64"  NumberOfComponents="3"  format="ascii">-1 -1 0  -0.9333333333333333 -1 0  -0.8666666666666667 -1 0  -0.8 -1 0  -0.7333333333333334 -1 0  -0.6666666666666667 -1 0  -0.6 -1 0  -0.5333333333333333 -1 0  -0.4666666666666667 -1 0  -0.4 -1 0  -0.3333333333333334 -1 0  -0.2666666666666667 -1 0  -0.2 -1 0  -0.1333333333333333 -1 0  -0.06666666666666665 -1 0  0 -1 0  0.06666666666666665 -1 0  0.1333333333333333 -1 0  0.2 -1 0  0.2666666666666666 -1 0  0.3333333333333333 -1 0  0.3999999999999999 -1 0  0.4666666666666666 -1 0  0.5333333333333334 -1 0  0.6000000000000001 -1 0  0.6666666666666667 -1 0  0.7333333333333334 -1 0  0.8 -1 0  0.8666666666666667 -1 0  0.9333333333333333 -1 0  1 -1 0  -1 -0.9333333333333333 0  -0.9333333333333333 -0.9333333333333333 0  -0.8666666666666667 -0.9333333333333333 0  -0.8 -0.9333333333333333 0  -0.7333333333333334 -0.9333333333333333 0  -0.6666666666666667 -0.9333333333333333 0  -0.6 -0.9333333333333333 0  -0.5333333333333333 -0.9333333333333333 0  -0.4666666666666667 -0.9333333333333333 0  -0.4 -0.9333333333333333 0  -0.3333333333333334 -0.9333333333333333 0  -0.2666666666666667 -0.9333333333333333 0  -0.2 -0.9333333333333333 0  -0.1333333333333333 -0.9333333333333333 0  -0.06666666666666665 -0.9333333333333333 0  0 -0.9333333333333333 0  0.06666666666666665 -0.9333333333333333 0  0.1333333333333333 -0.9333333333333333 0  0.2 -0.9333333333333333 0  0.2666666666666666 -0.9333333333333333 0  0.3333333333333333 -0.9333333333333333 0  0.3999999999999999 -0.9333333333333333 0  0.4666666666666666 -0.9333333333333333 0  0.5333333333333334 -0.9333333333333333 0  0.6000000000000001 -0.9333333333333333 0  0.6666666666666667 -0.9333333333333333 0  0.7333333333333334 -0.9333333333333333 0  0.8 -0.9333333333333333 0  0.8666666666666667 -0.9333333333333333 0  0.9333333333333333 -0.9333333333333333 0  1 -0.9333333333333333 0  -1 -0.8666666666666667 0  -0.9333333333333333 -0.8666666666666667 0  -0.8666666666666667 -0.8666666666666667 0  -0.8 -0.8666666666666667 0  -0.7333333333333334 -0.8666666666666667 0  -0.6666666666666667 -0.8666666666666667 0  -0.6 -0.8666666666666667 0  -0.5333333333333333 -0.8666666666666667 0  -0.4666666666666667 -0.8666666666666667 0  -0.4 -0.8666666666666667 0  -0.3333333333333334 -0.8666666666666667 0  -0.2666666666666667 -0.8666666666666667 0  -0.2 -0.8666666666666667 0  -0.1333333333333333 -0.8666666666666667 0  -0.06666666666666665 -0.8666666666666667 0  0 -0.8666666666666667 0  0.06666666666666665 -0.8666666666666667 0  0.1333333333333333 -0.8666666666666667 0  0.2 -0.8666666666666667 0  0.2666666666666666 -0.8666666666666667 0  0.3333333333333333 -0.8666666666666667 0  0.3999999999999999 -0.8666666666666667 0  0.4666666666666666 -0.8666666666666667 0  0.5333333333333334 -0.8666666666666667 0  0.6000000000000001 -0.8666666666666667 0  0.6666666666666667 -0.8666666666666667 0  0.7333333333333334 -0.8666666666666667 0  0.8 -0.8666666666666667 0  0.8666666666666667 -0.8666666666666667 0  0.9333333333333333 -0.8666666666666667 0  1 -0.8666666666666667 0  -1 -0.8 0  -0.9333333333333333 -0.8 0  -0.8666666666666667 -0.8 0  -0.8 -0.8 0  -0.7333333333333334 -0.8 0  -0.6666666666666667 -0.8 0  -0.6 -0.8 0  -0.5333333333333333 -0.8 0  -0.4666666666666667 -0.8 0  -0.4 -0.8 0  -0.3333333333333334 -0.8 0  -0.2666666666666667 -0.8 0  -0.2 -0.8 0  -0.1333333333333333 -0.8 0  -0.06666666666666665 -0.8 0  0 -0.8 0  0.06666666666666665 -0.8 0  0.1333333333333333 -0.8 0  0.2 -0.8 0  0.2666666666666666 -0.8 0  0.3333333333333333 -0.8 0  0.3999999999999999 -0.8 0  0.4666666666666666 -0.8 0  0.5333333333333334 -0.8 0  0.6000000000000001 -0.8 0  0.6666666666666667 -0.8 0  0.7333333333333334 -0.8 0  0.8 -0.8 0  0.8666666666666667 -0.8 0  0.9333333333333333 -0.8 0  1 -0.8 0  -1 -0.7333333333333334 0  -0.9333333333333333 -0.7333333333333334 0  -0.8666666666666667 -0.7333333333333334 0  -0.8 -0.7333333333333334 0  -0.7333333333333334 -0.7333333333333334 0  -0.6666666666666667 -0.7333333333333334 0  -0.6 -0.7333333333333334 0  -0.5333333333333333 -0.7333333333333334 0  -0.4666666666666667 -0.7333333333333334 0  -0.4 -0.7333333333333334 0  -0.3333333333333334 -0.7333333333333334 0  -0.2666666666666667 -0.7333333333333334 0  -0.2 -0.7333333333333334 0  -0.1333333333333333 -0.7333333333333334 0  -0.06666666666666665 -0.7333333333333334 0  0 -0.7333333333333334 0  0.06666666666666665 -0.7333333333333334 0  0.1333333333333333 -0.7333333333333334 0  0.2 -0.7333333333333334 0  0.2666666666666666 -0.7333333333333334 0  0.3333333333333333 -0.7333333333333334 0  0.3999999999999999 -0.7333333333333334 0  0.4666666666666666 -0.7333333333333334 0  0.5333333333333334 -0.7333333333333334 0  0.6000000000000001 -0.7333333333333334 0  0.6666666666666667 -0.7333333333333334 0  0.7333333333333334 -0.7333333333333334 0  0.8 -0.7333333333333334 0  0.8666666666666667 -0.7333333333333334 0  0.9333333333333333 -0.7333333333333334 0  1 -0.7333333333333334 0  -1 -0.6666666666666667 0  -0.9333333333333333 -0.6666666666666667 0  -0.8666666666666667 -0.6666666666666667 0  -0.8 -0.6666666666666667 0  -0.7333333333333334 -0.6666666666666667 0  -0.6666666666666667 -0.6666666666666667 0  -0.6 -0.6666666666666667 0  -0.5333333333333333 -0.6666666666666667 0  -0.4666666666666667 -0.6666666666666667 0  -0.4 -0.6666666666666667 0  -0.3333333333333334 -0.6666666666666667 0  -0.2666666666666667 -0.6666666666666667 0  -0.2 -0.6666666666666667 0  -0.1333333333333333 -0.6666666666666667 0  -0.06666666666666665 -0.6666666666666667 0  0 -0.6666666666666667 0  0.06666666666666665 -0.6666666666666667 0  0.1333333333333333 -0.6666666666666667 0  0.2 -0.6666666666666667 0  0.2666666666666666 -0.6666666666666667 0  0.3333333333333333 -0.6666666666666667 0  0.3999999999999999 -0.6666666666666667 0  0.4666666666666666 -0.6666666666666667 0  0.5333333333333334 -0.6666666666666667 0  0.6000000000000001 -0.6666666666666667 0  0.6666666666666667 -0.6666666666666667 0  0.7333333333333334 -0.6666666666666667 0  0.8 -0.6666666666666667 0  0.8666666666666667 -0.6666666666666667 0  0.9333333333333333 -0.6666666666666667 0  1 -0.6666666666666667 0  -1 -0.6 0  -0.9333333333333333 -0.6 0  -0.8666666666666667 -0.6 0  -0.8 -0.6 0  -0.7333333333333334 -0.6 0  -0.6666666666666667 -0.6 0  -0.6 -0.6 0  -0.5333333333333333 -0.6 0  -0.4666666666666667 -0.6 0  -0.4 -0.6 0  -0.3333333333333334 -0.6 0  -0.2666666666666667 -0.6 0  -0.2 -0.6 0  -0.1333333333333333 -0.6 0  -0.06666666666666665 -0.6 0  0 -0.6 0  0.06666666666666665 -0.6 0  0.1333333333333333 -0.6 0  0.2 -0.6 0  0.2666666666666666 -0.6 0  0.3333333333333333 -0.6 0  0.3999999999999999 -0.6 0  0.4666666666666666 -0.6 0  0.5333333333333334 -0.6 0  0.6000000000000001 -0.6 0  0.6666666666666667 -0.6 0  0.7333333333333334 -0.6 0  0.8 -0.6 0  0.8666666666666667 -0.6 0  0.9333333333333333 -0.6 0  1 -0.6 0  -1 -0.5333333333333333 0  -0.9333333333333333 -0.5333333333333333 0  -0.8666666666666667 -0.5333333333333333 0  -0.8 -0.5333333333333333 0  -0.7333333333333334 -0.5333333333333333 0  -0.6666666666666667 -0.5333333333333333 0  -0.6 -0.5333333333333333 0  -0.5333333333333333 -0.5333333333333333 0  -0.4666666666666667 -0.5333333333333333 0  -0.4 -0.5333333333333333 0  -0.3333333333333334 -0.5333333333333333 0  -0.2666666666666667 -0.5333333333333333 0  -0.2 -0.5333333333333333 0  -0.1333333333333333 -0.5333333333333333 0  -0.06666666666666665 -0.5333333333333333 0  0 -0.5333333333333333 0  0.06666666666666665 -0.5333333333333333 0  0.1333333333333333 -0.5333333333333333 0  0.2 -0.5333333333333333 0  0.2666666666666666 -0.5333333333333333 0  0.3333333333333333 -0.5333333333333333 0  0.3999999999999999 -0.5333333333333333 0  0.4666666666666666 -0.5333333333333333 0  0.5333333333333334 -0.5333333333333333 0  0.6000000000000001 -0.5333333333333333 0  0.6666666666666667 -0.5333333333333333 0  0.7333333333333334 -0.5333333333333333 0  0.8 -0.5333333333333333 0  0.8666666666666667 -0.5333333333333333 0  0.9333333333333333 -0.5333333333333333 0  1 -0.5333333333333333 0  -1 -0.4666666666666667 0  -0.9333333333333333 -0.4666666666666667 0  -0.8666666666666667 -0.4666666666666667 0  -0.8 -0.4666666666666667 0  -0.7333333333333334 -0.4666666666666667 0  -0.6666666666666667 -0.4666666666666667 0  -0.6 -0.4666666666666667 0  -0.5333333333333333 -0.4666666666666667 0  -0.4666666666666667 -0.4666666666666667 0  -0.4 -0.4666666666666667 0  -0.3333333333333334 -0.4666666666666667 0  -0.2666666666666667 -0.4666666666666667 0  -0.2 -0.4666666666666667 0  -0.1333333333333333 -0.4666666666666667 0  -0.06666666666666665 -0.4666666666666667 0  0 -0.4666666666666667 0  0.06666666666666665 -0.4666666666666667 0  0.1333333333333333 -0.4666666666666667 0  0.2 -0.4666666666666667 0  0.2666666666666666 -0.4666666666666667 0  0.3333333333333333 -0.4666666666666667 0  0.3999999999999999 -0.4666666666666667 0  0.4666666666666666 -0.4666666666666667 0  0.5333333333333334 -0.4666666666666667 0  0.6000000000000001 -0.4666666666666667 0  0.6666666666666667 -0.4666666666666667 0  0.7333333333333334 -0.4666666666666667 0  0.8 -0.4666666666666667 0  0.8666666666666667 -0.4666666666666667 0  0.9333333333333333 -0.4666666666666667 0  1 -0.4666666666666667 0  -1 -0.4 0  -0.9333333333333333 -0.4 0  -0.8666666666666667 -0.4 0  -0.8 -0.4 0  -0.7333333333333334 -0.4 0  -0.6666666666666667 -0.4 0  -0.6 -0.4 0  -0.5333333333333333 -0.4 0  -0.4666666666666667 -0.4 0  -0.4 -0.4 0  -0.3333333333333334 -0.4 0  -0.2666666666666667 -0.4 0  -0.2 -0.4 0  -0.1333333333333333 -0.4 0  -0.06666666666666665 -0.4 0  0 -0.4 0  0.06666666666666665 -0.4 0  0.1333333333333333 -0.4 0  0.2 -0.4 0  0.2666666666666666 -0.4 0  0.3333333333333333 -0.4 0  0.3999999999999999 -0.4 0  0.4666666666666666 -0.4 0  0.5333333333333334 -0.4 0  0.6000000000000001 -0.4 0  0.6666666666666667 -0.4 0  0.7333333333333334 -0.4 0 
[...]
<PointData  Scalars="f_24"> 
<DataArray  type="Float64"  Name="f_24"  format="ascii">0.0000000000000000e+00  0.0000000000000000e+00  0.0000000000000000e+00  0.0000000000000000e+00  0.0000000000000000e+00  0.0000000000000000e+00  0.0000000000000000e+00  0.0000000000000000e+00  0.0000000000000000e+00  0.0000000000000000e+00  0.0000000000000000e+00  0.0000000000000000e+00  0.0000000000000000e+00  0.0000000000000000e+00  0.0000000000000000e+00  0.0000000000000000e+00  0.0000000000000000e+00  0.0000000000000000e+00  0.0000000000000000e+00  0.0000000000000000e+00  0.0000000000000000e+00  0.0000000000000000e+00  0.0000000000000000e+00  0.0000000000000000e+00  0.0000000000000000e+00  -1.2349076852773155e-07  0.0000000000000000e+00  -9.7899849095446006e-08  0.0000000000000000e+00  0.0000000000000000e+00  1.3099692049247709e+01  0.0000000000000000e+00  1.1932170701757042e+07  1.3014413764703752e+07  1.8940122948430769e+07  1.3606481964102326e+07  1.8654371359101024e+07  1.0587951437789667e+07  1.7710743620653000e+07  7.4577081727142902e+06  1.6539160346785709e+07  5.2813102660325309e+06  1.6118026155415304e+07  3.1123883453536471e+06  1.6792600837183088e+07  1.4933021842931272e+06  1.7562385338869724e+07  9.2939715852579044e+05  1.8681812818776056e+07  8.7761103581966914e+05  2.0495192038863119e+07  1.5946364345128220e+06  2.3870162456879053e+07  9.3411185784659977e+05  3.5050916563448265e+07  -5.7901620493942229e+06  6.1310829924608551e+07  -1.8612548815117609e+07  1.0172885692500767e+08  -1.1432548064726586e+07  2.2141167549675044e+08  1.1438473200350579e+01  0.0000000000000000e+00  1.3014413743982477e+07  1.4270858628703466e+07  5.6565192785155326e+06  2.4315890598896509e+06  -4.0309427082314892e+06  -3.7159840581954643e+06  -8.6338270598324500e+06  -6.9520171847547470e+06  -9.5321530162014440e+06  -8.0412953116049897e+06  -1.0421678109213505e+07  -7.6479831903274376e+06  -1.0771053330661461e+07  -8.1651746107532047e+06  -1.0181100021410950e+07  -8.9374154150160067e+06  -1.0314670440787621e+07  -9.3254008929292969e+06  -1.0496569602061497e+07  -1.0077971693599608e+07  -1.2016244128467005e+07  -7.5162060346107744e+06  -2.0667921904040314e+07  -1.3151447667192747e+06  -3.3593550362259567e+07  3.0007852153462069e+06  -2.9038778572334118e+07  -1.7916498750009310e+07  -1.1432556310640667e+07  9.9404991563073875e+00  -1.7003180135517837e-09  1.8940122939465016e+07  5.6565192821084233e+06  1.9413079573505882e+06  -4.7402416612152597e+06  1.2711882055628551e+06  -4.8245012252449589e+06  3.9012406565172053e+06  -2.2106089052381003e+06  6.9641850881151026e+06  -2.1796544874838083e+06  1.0252339978585560e+07  -2.4734580423912881e+06  1.1477719420800425e+07  -2.1703623265752848e+06  1.2580905527272537e+07  -3.3082725894707716e+06  1.4476634841554143e+07  -4.4516390233640382e+06  1.4982735464965912e+07  -5.5391532077886499e+06  1.8083568392130252e+07  -1.1431620109181605e+07  3.0107217081140172e+07  -1.9059137579418570e+07  4.6511430317750767e+07  -3.0742096978737574e+07  5.5653321094745353e+07  -2.9038778005190279e+07  1.0172885852686268e+08  8.5947080832000164e+00  0.0000000000000000e+00  1.3606481899800146e+07  2.4315890798360789e+06  -4.7402416672437582e+06  4.8510668482986954e+05  -4.7096624024721468e+06  4.4696867950034438e+05  -3.4001575149893821e+06  -9.5735967405660500e+04  -5.4421407172788754e+06  2.2736643167448483e+03  -6.4277878672846556e+06  -1.6708200920985590e+06  -6.0576890930273933e+06  -2.5433210916816131e+06  -6.9165950022979761e+06  -2.2871156108140214e+06  -7.0082738155858777e+06  -3.7071288201443912e+06  -5.4101455133636398e+06  -3.8467343265122399e+06  -9.2543578383531794e+06  3.7458326279127126e+05  -2.1670208875455763e+07  3.3681643188642492e+06  -3.1210580599199791e+07  1.2128680838068292e+07  -3.0742105654009230e+07  3.0007910704589095e+06  -1.8612555718618199e+07  7.3904257702432359e+00  -1.0143395660574222e-08  1.8654371340784360e+07  -4.0309426702700495e+06  1.2711882121600173e+06  -4.7096624062494971e+06  1.3491311982406361e+06  -2.9864844621529216e+06  3.2200959990565665e+06  -4.3885525863532973e+06  6.2468929837729968e+06  -4.0017768050077735e+06  7.1142504586909525e+06  -3.2084791868719929e+06  9.0036482014641389e+06  -4.4570839121083198e+06  1.1390703828833628e+07  -5.2383261843618173e+06  1.1671774221074453e+07  -4.8743864714692961e+06  1.2182052067037880e+07  -8.3057962982331719e+06  2.0085944870759506e+07  -1.4164216471850997e+07  3.2818496390493177e+07  -2.0635444354267512e+07  3.8253887126449257e+07  -3.1210591078946076e+07  4.6511440189089052e+07  -3.3593551430566430e+07  6.1310829377362743e+07  6.3173669218980093e+00  0.0000000000000000e+00  1.0587951344283381e+07  -3.7159840013441141e+06  -4.8245012785967821e+06  4.4696869135769998e+05  -2.9864844670324307e+06  2.5737498432838377e+06  -4.5375483263091175e+06  3.6734605592382024e+06  -4.3268720570760611e+06  1.9344231576544771e+06  -4.4321639151307270e+06  1.8359087566157214e+06  -5.9820705370937707e+06  1.7475334552994715e+06  -6.0429507259437013e+06  2.1342929801564268e+05  -4.6574491397686759e+06  -1.0444914386315600e+06  -5.0740372055215864e+06  1.2792041647590552e+06  -1.2142081730568666e+07  2.5999572113836422e+06  -1.8452273985436086e+07  6.1570419481015485e+06  -2.0635469462794278e+07  3.3681837202415294e+06  -1.9059144968627386e+07  -1.3151456042808786e+06  -5.7901643988475064e+06  5.3656338633718628e+00  7.4858552509031300e-09  1.7710743610782046e+07  -8.6338270036884136e+06  3.9012406511871237e+06  -3.4001574936097264e+06  3.2200960037202109e+06  -4.5375483315376928e+06  4.3295093156337626e+06  -4.0630864990752214e+06  4.2047701720149731e+06  -4.1937860974281528e+06  6.6483450576643981e+06  -5.3286814380019763e+06  8.1480606519459616e+06  -5.1367747736330098e+06  8.8200013901262321e+06  -5.2052468219140591e+06  9.4983858220539466e+06  -6.1419943166966503e+06  1.2298432484101590e+07  -9.7801569789537862e+06  2.0647450753673695e+07  -1.2736730359799936e+07  2.5255145970079176e+07  -1.8452317601044305e+07  3.2818532338715300e+07  -2.1670216112934809e+07  3.0107210681247309e+07  -2.0667914976407878e+07  3.5050915447139382e+07  4.5257171885846015e+00  0.0000000000000000e+00  7.4577080491246786e+06  -6.9520171044070795e+06  -2.2106089929928100e+06  -9.5735935710514794e+04  -4.3885526343227280e+06  3.6734605796857518e+06  -4.0630865076882970e+06  3.5964025574376294e+06  -4.3670841462402670e+06  4.8004912911549611e+06  -5.4667208577137738e+06  3.7237509000395467e+06  -5.1856568292588992e+06  3.0057356283229636e+06  -5.7303941089129206e+06  2.5452073887638249e+06  -4.9319361967230244e+06  1.5717057559105118e+06  -6.4231652039331179e+06  2.8238325180148743e+06  -1.1618303070923582e+07  3.8907263333345223e+06  -1.2736811647813942e+07  2.6000225725595364e+06  -1.4164230922429083e+07  3.7456787698019284e+05  -1.1431608382019678e+07  -7.5162073526334232e+06  9.3410709054494463e+05  3.7884956304797188e+00  1.2975749431255068e-08  1.6539160347341217e+07  -9.5321529341755286e+06  6.9641850696492642e+06  -5.4421406867753714e+06  6.2468930051386263e+06  -4.3268720529134851e+06  4.2047701785487263e+06  -4.3670841508125952e+06  5.4378613543743445e+06  -5.3744126811271617e+06  5.2402713249811092e+06  -4.9681006141093113e+06  7.0456432521113111e+06  -6.2622852239536215e+06  8.3992023586954121e+06  -5.7245037913480466e+06  7.4970801892840173e+06  -5.8064068175275112e+06  1.1756107908000672e+07  -9.0385119658577982e+06  1.6850368240850795e+07  -1.1618442031139594e+07  2.0647564888497334e+07  -1.2142101774298321e+07  2.0085911472351737e+07  -9.2543283037918974e+06  1.8083563486020003e+07  -1.2016248867080428e+07  2.3870165581463516e+07  3.1452362806583380e+00  0.0000000000000000e+00  5.2813101178771798e+06  -8.0412952151173735e+06  -2.1796546304561011e+06  2.2737452314962852e+03  -4.0017768997070389e+06  1.9344231888753509e+06  -4.1937861401212094e+06  4.8004913154856348e+06  -5.3744126955440380e+06  4.5619091010668715e+06  -4.8896227328901663e+06  5.7624172149490369e+06  -6.6680248180077169e+06  4.9955010950909033e+06  -5.3395745534387119e+06  2.4792697906440101e+06  -3.7164273842435605e+06  2.9932291343720150e+06  -8.5293748942593746e+06  4.7637773467188990e+06  -9.0387430534892641e+06  2.8240237798712044e+06  -9.7801888356810641e+06  1.2791395564614481e+06  -8.3057414703555824e+06  -3.8467434583445890e+06  -5.5391682114918064e+06  -1.0077961412357971e+07  1.5946332984723600e+06  2.5875934912094252e+00  -7.9196399083078995e-09  1.6118026170453526e+07  -1.0421678020777237e+07  1.0252339979846712e+07  -6.4277878275439702e+06  7.1142504687095098e+06  -4.4321638916664869e+06  6.6483450888210749e+06  -5.4667208716943720e+06  5.2402713412399283e+06  -4.8896227385183210e+06  6.4727979142567124e+06  -7.0083468365950836e+06  6.2247282499182820e+06  -4.9785224081461607e+06  5.8872075419227714e+06  -4.6321029414577326e+06  6.8321080697810668e+06  -7.3714529566606926e+06  1.2294495848066431e+07  -8.5297338518938627e+06  1.1756411659808805e+07  -6.4232090560717285e+06  1.2298315075612903e+07  -5.0739354012720371e+06  1.2182035184552489e+07  -5.4101727912720032e+06  1.4982756303131532e+07  -1.0496570769031873e+07  2.0495188515755259e+07  2.1076110710493956e+00  0.0000000000000000e+00  3.1123881532577900e+06  -7.6479830553932451e+06  -2.4734582479031868e+06  -1.6708199880777383e+06  -3.2084793191758343e+06  1.8359088312964705e+06  -5.3286815495231161e+06  3.7237509498322364e+06  -4.9681006627686517e+06  5.7624172462374764e+06  -7.0083468624944519e+06  5.5273753579882756e+06  -4.3521265126954494e+06  4.8868512148614675e+06  -5.8263024195623063e+06  4.1795171543506063e+06  -5.4585380053281141e+06  5.0636873486763872e+06  -7.3719755095666200e+06  2.9936820292112525e+06  -5.8064661103316154e+06  1.5715073166004596e+06  -6.1418230686627692e+06  -1.0445182461742737e+06  -4.8744406182481172e+06  -3.7070875323975710e+06  -4.4516436908731703e+06  -9.3254105277443398e+06  8.7761390570550540e+05  1.6977200895825031e+00  4.1388262303570868e-06  1.6792600885205120e+07  -1.0771053238924554e+07  1.1477719425732315e+07  -6.0576890229503019e+06  9.0036482242134735e+06  -5.9820705308934348e+06  8.1480607061137659e+06  -5.1856568310692245e+06  7.0456433011303935e+06  -6.6680248609207952e+06  6.2247282914210865e+06  -4.3521265220454354e+06  5.5708621789164878e+06  -7.3125535164312217e+06  6.3071238957385765e+06  -3.7872705608739615e+06  5.3706572747204434e+06  -5.4592377164355181e+06  6.8327347483021691e+06  -3.7164994956621835e+06  7.4967687760013565e+06  -4.9316642035001013e+06  9.4983467682018764e+06  -4.6575441390156010e+06  1.1671848330354691e+07  -7.0082790186813697e+06  1.4476612236553663e+07  -1.0314657578553692e+07  1.8681813180289179e+07  1.3507399748706392e+00  0.0000000000000000e+00  1.4933019275898095e+06  -8.1651744469118360e+06  -2.1703625828548488e+06  -2.5433209503974556e+06  -4.4570841337920241e+06  1.7475335945893670e+06  -5.1367749440868301e+06  3.0057357236694451e+06  -6.2622853696020627e+06  4.9955011876726151e+06  -4.9785224787037373e+06  4.8868512516240012e+06  -7.3125535637458116e+06  6.2814249416309763e+06  -2.2968595534676579e+06  7.0672520025760739e+05  -3.7881270441228570e+06  4.1803141810750677e+06  -4.6321856413459918e+06  2.4788213412255459e+06  -5.7241072180702081e+06  2.5451570333277178e+06  -5.2054065277313786e+06  2.1355408518713247e+05  -5.2383350772500681e+06  -2.2871586860393039e+06  -3.3082483554246421e+06  -8.9374130658786539e+06  9.2938953764454566e+05  1.0598782939993801e+00  0.0000000000000000e+00  1.7562385419816144e+07  -1.0181099900938114e+07  1.2580905545822848e+07  -6.9165949431278808e+06  1.1390703905635970e+07  -6.0429507288467223e+06  8.8200014703615624e+06  -5.7303941475671893e+06  8.3992024805882480e+06  -5.3395746146335835e+06  5.8872076321862470e+06  -5.8263025232375767e+06  6.3071240317612663e+06  -2.2968596108236746e+06  -2.3493842485573128e+05  -2.2978087106470400e+06  6.3080478822317906e+06  -5.8263903608559780e+06  5.8866202695387192e+06  -5.3390424174792599e+06  8.3991440126547217e+06  -5.7306385078505855e+06  8.8201943479783703e+06  -6.0429598399757203e+06  1.1390627332521221e+07  -6.9165487088116119e+06  1.2580909980532408e+07  -1.0181116534558227e+07  1.7562390995083041e+07  8.1873075307798182e-01  0.0000000000000000e+00  9.2939681912984699e+05  -8.9374152074631788e+06  -3.3082729569920423e+06  -2.2871153762730090e+06  -5.2383265203252556e+06  2.1342950058800692e+05  -5.2052471016376168e+06  2.5452075998699223e+06  -5.7245040650187666e+06  2.4792699709262415e+06  -4.6321031753847729e+06  4.1795173650453161e+06  -3.7872707267726967e+06  7.0672520022035949e+05  -2.2978086532768970e+06  6.2823961096653873e+06  -7.3126436142945383e+06  4.8861580944323698e+06  -4.9778731971772080e+06  4.9954399691452384e+06  -6.2626275589323016e+06  3.0060091736210780e+06  -5.1367826494135000e+06  1.7474097986144517e+06  -4.4570087657227227e+06  -2.5433115556934988e+06  -2.1703969762163558e+06  -8.1651606209736792e+06  1.4933038230057394e+06  6.2128119723938269e-01  0.0000000000000000e+00  1.8681812946148433e+07  -1.0314670309862863e+07  1.4476634931013467e+07  -7.0082737883337876e+06  1.1671774353704937e+07  -4.6574491710096663e+06  9.4983860032181330e+06  -4.9319363190032197e+06  7.4970803928787848e+06  -3.7164274968463681e+06  6.8321082584408484e+06  -5.4585381022256427e+06  5.3706572746329037e+06  -3.7881268781139427e+06  6.3080477462279890e+06  -7.3126435669781491e+06  5.5701291583929444e+06  -4.3514081168414503e+06  6.2246678159431331e+06  -6.6684552482415335e+06  7.0459954970820108e+06  -5.1856579050382217e+06  8.1478776743486878e+06  -5.9819566233754270e+06  9.0036652455178145e+06  -6.0577471812096853e+06  1.1477743947201323e+07  -1.0771045007264521e+07  1.6792591751667075e+07  4.6190160645926520e-01  0.0000000000000000e+00  8.7761054446557257e+05  -9.3254005725322254e+06  -4.4516395727187702e+06  -3.7071284825334200e+06  -4.8743869410334583e+06  -1.0444911277825683e+06  -6.1419947531046364e+06  1.5717060412017643e+06  -5.8064071319221584e+06  2.9932292924144738e+06  -7.3714531451240378e+06  5.0636873486228716e+06  -5.4592376193811363e+06  4.1803139702483034e+06  -5.8263902572533004e+06  4.8861580576492595e+06  -4.3514081074975459e+06  5.5273157421541354e+06  -7.0088308475426519e+06  5.7628278565700054e+06  -4.9680934331969926e+06  3.7235069589844588e+06  -5.3285273114094604e+06  1.8359375434657154e+06  -3.2085706435246300e+06  -1.6707806627639588e+06  -2.4734427170008868e+06  -7.6480047944661845e+06  3.1123925290417685e+06  3.3535211646074142e-01  0.0000000000000000e+00  2.0495192255706448e+07  -1.0496569458247932e+07  1.4982735615908626e+07  -5.4101454668330504e+06  1.2182052243333533e+07  -5.0740372414180785e+06  1.2298432679875508e+07  -6.4231652181617822e+06  1.1756107988250958e+07  -8.5293748300059792e+06  1.2294495847936071e+07  -7.3719753210513908e+06  6.8327345595708536e+06  -4.6321854072545078e+06  5.8866201794140609e+06  -4.9778731265518134e+06  6.2246677744715400e+06  -7.0088308216378512e+06  6.4732301599665796e+06  -4.8896090185835958e+06  5.2399802667159587e+06  -5.4665312772340570e+06  6.6483874253580952e+06  -4.4322914673636230e+06  7.1143062171442769e+06  -6.4277601522451742e+06  1.0252300702173822e+07  -1.0421667514564300e+07  1.6118032129267858e+07  2.3678097690498243e-01  0.0000000000000000e+00  1.5946357028746849e+06  -1.0077971254570253e+07  -5.5391539217032148e+06  -3.8467339507223102e+06  -8.3057968527647350e+06  1.2792044545781387e+06  -9.7801573611158300e+06  2.8238326234582397e+06  -9.0385121425957568e+06  4.7637773462230628e+06  -8.5297339155797362e+06  2.9936818711513546e+06  -3.7164993831456336e+06  2.4788211606906280e+06  -5.3390423565235175e+06  4.9954398764116019e+06  -6.6684552054071510e+06  5.7628278252459373e+06  -4.8896090129589243e+06  4.5616002156926226e+06  -5.3742028831640268e+06  4.8005453330511712e+06  -4.1939471590400808e+06  1.9344947867435594e+06  -4.0017361837289813e+06  2.2144225550046945e+03  -2.1796396346946312e+06  -8.0412800004239762e+06  5.2812989237336498e+06  1.6172459320058907e-01  0.0000000000000000e+00  2.3870162727168955e+07  -1.2016243825439971e+07  1.8083568512818214e+07  -9.2543576791009884e+06  2.0085945029738542e+07  -1.2142081639438225e+07  2.0647450836830262e+07  -1.1618302905457718e+07  1.6850368240605798e+07  -9.0387428758400157e+06  1.1756411578736868e+07  -5.8064657958886633e+06  7.4967685727172876e+06  -5.7241069439389762e+06  8.3991438911704440e+06  -6.2626274129752610e+06  7.0459954482444469e+06  -4.9680933844396938e+06  5.2399802504956285e+06  -5.3742028687433749e+06  5.4379200011729021e+06  -4.3672649119720655e+06  4.2048530197945982e+06  -4.3268180850734459e+06  6.2468132515393412e+06  -5.4421200014926782e+06  6.9642107826978453e+06  -9.5321750582648478e+06  1.6539162954895958e+07  1.0610755494834762e-01  0.0000000000000000e+00  9.3411084321191115e+05  -7.5162055178447198e+06  -1.1431620993630616e+07  3.7458362821636937e+05  -1.4164217071303494e+07  2.5999573891321076e+06  -1.2736730683682702e+07  3.8907263324079635e+06  -1.1618442196235925e+07  2.8240236740488368e+06  -6.4232090409146138e+06  1.5715070310623520e+06  -4.9316640818829089e+06  2.5451568214037018e+06  -5.7306384699325413e+06  3.0060090777021693e+06  -5.1856579036140582e+06  3.7235069089706396e+06  -5.4665312633676808e+06  4.8005453086806694e+06  -4.3672649074034030e+06  3.5964894960916312e+06  -4.0630246808364983e+06  3.6733655898666726e+06  -4.3885284934017956e+06  -9.5698791464512920e+04  -2.2106440165425381e+06  -6.9520128952212529e+06  7.4577158713228740e+06  6.6242393374961295e-02  1.1029025241772487e-08  3.5050916759239443e+07  -2.0667921320500035e+07  3.0107217241860647e+07  -2.1670208634117924e+07  3.2818496567605276e+07  -1.8452273728973113e+07  2.5255145968035132e+07  -1.2736811320058046e+07  2.0647564804357871e+07  -9.7801884539164547e+06  1.2298314879038967e+07  -6.1418226315695671e+06  9.4983465883348044e+06  -5.2054062465362651e+06  8.8201942690803166e+06  -5.1367824778837217e+06  8.1478776209472399e+06  -5.3285271994009754e+06  6.6483873944727583e+06  -4.1939471162151168e+06  4.2048530133026810e+06  -4.0630246722194320e+06  4.3294085989120668e+06  -4.5375219511185782e+06  3.2201417258980973e+06  -3.4002022588995737e+06  3.9012446322077513e+06  -8.6338089706991073e+06  1.7710734089458130e+07  3.8830074827461390e-02  0.0000000000000000e+00  -5.7901635541698262e+06  -1.3151440060711920e+06  -1.9059138765707441e+07  3.3681646324884584e+06  -2.0635444991373997e+07  6.1570419491934953e+06  -1.8452317858107369e+07  2.6000223901742171e+06  -1.2142101862837050e+07  1.2791392679326963e+06  -5.0739353650113633e+06  -1.0445185586607290e+06  -4.6575441102798907e+06  2.1355387988569229e+05  -6.0429598395505762e+06  1.7474096572926466e+06  -5.9819566310840594e+06  1.8359374677618458e+06  -4.4322914914505770e+06  1.9344947551869932e+06  -4.3268180893889079e+06  3.6733655693736463e+06  -4.5375219458943317e+06  2.5737988592529441e+06  -2.9865353929168954e+06  4.4697255667888519e+05  -4.8244759211537167e+06  -3.7160005290236054e+06  1.0587950345720561e+07  2.0959507278796315e-02  0.0000000000000000e+00  6.1310829930961944e+07  -3.3593549450245447e+07  4.6511430604879804e+07  -3.1210580073803358e+07  3.8253887114986524e+07  -2.0635468808486890e+07  3.2818532167637713e+07  -1.4164230321955817e+07  2.0085911307418581e+07  -8.3057409180753417e+06  1.2182035009160267e+07  -4.8744401448103478e+06  1.1671848202891923e+07  -5.2383347359192595e+06  1.1390627260579769e+07  -4.4570085400388911e+06  9.0036652258151099e+06  -3.2085705090717864e+06  7.1143062085178150e+06  -4.0017360882127672e+06  6.2468132305963682e+06  -4.3885284452503556e+06  3.2201417212855360e+06  -2.9865353880323977e+06  1.3491349031057535e+06  -4.7096320820943518e+06  1.2711663142121311e+06  -4.0309440407373291e+06  1.8654379353028804e+07  1.0107787075036803e-02  0.0000000000000000e+00  -1.8612551398697924e+07  3.0007862504568216e+06  -3.0742098258951157e+07  1.2128680822126847e+07  -3.1210591662966277e+07  3.3681833721138439e+06  -2.167021634