<?xml version="1.0"?>
<VTKFile type="UnstructuredGrid"  version="0.1"  >
<UnstructuredGrid>
<Piece  NumberOfPoints="961" NumberOfCells="1800">
<Points>
<DataArray  type="Float64"  NumberOfComponents="3"  format="ascii">-1 -1 0  -0.9333333333333333 -1 0  -0.8666666666666667 -1 0  -0.8 -1 0  -0.7333333333333334 -1 0  -0.6666666666666667 -1 0  -0.6 -1 0  -0.5333333333333333 -1 0  -0.4666666666666667 -1 0  -0.4 -1 0  -0.3333333333333334 -1 0  -0.2666666666666667 -1 0  -0.2 -1 0  -0.1333333333333333 -1 0  -0.06666666666666665 -1 0  0 -1 0  0.06666666666666665 -1 0  0.1333333333333333 -1 0  0.2 -1 0  0.2666666666666666 -1 0  0.3333333333333333 -1 0  0.3999999999999999 -1 0  0.4666666666666666 -1 0  0.5333333333333334 -1 0  0.6000000000000001 -1 0  0.6666666666666667 -1 0  0.7333333333333334 -1 0  0.8 -1 0  0.8666666666666667 -1 0  0.9333333333333333 -1 0  1 -1 0  -1 -0.9333333333333333 0  -0.9333333333333333 -0.9333333333333333 0  -0.8666666666666667 -0.9333333333333333 0  -0.8 -0.9333333333333333 0  -0.7333333333333334 -0.9333333333333333 0  -0.6666666666666667 -0.9333333333333333 0  -0.6 -0.9333333333333333 0  -0.5333333333333333 -0.9333333333333333 0  -0.4666666666666667 -0.9333333333333333 0  -0.4 -0.9333333333333333 0  -0.3333333333333334 -0.9333333333333333 0  -0.2666666666666667 -0.9333333333333333 0  -0.2 -0.9333333333333333 0  -0.1333333333333333 -0.9333333333333333 0  -0.06666666666666665 -0.9333333333333333 0  0 -0.9333333333333333 0  0.06666666666666665 -0.9333333333333333 0  0.1333333333333333 -0.9333333333333333 0  0.2 -0.9333333333333333 0  0.2666666666666666 -0.9333333333333333 0  0.3333333333333333 -0.9333333333333333 0  0.3999999999999999 -0.9333333333333333 0  0.4666666666666666 -0.9333333333333333 0  0.5333333333333334 -0.9333333333333333 0  0.6000000000000001 -0.9333333333333333 0  0.6666666666666667 -0.9333333333333333 0  0.7333333333333334 -0.9333333333333333 0  0.8 -0.9333333333333333 0  0.8666666666666667 -0.9333333333333333 0  0.9333333333333333 -0.9333333333333333 0  1 -0.9333333333333333 0  -1 -0.8666666666666667 0  -0.9333333333333333 -0.8666666666666667 0  -0.8666666666666667 -0.8666666666666667 0  -0.8 -0.8666666666666667 0  -0.7333333333333334 -0.8666666666666667 0  -0.6666666666666667 -0.8666666666666667 0  -0.6 -0.8666666666666667 0  -0.5333333333333333 -0.8666666666666667 0  -0.4666666666666667 -0.8666666666666667 0  -0.4 -0.8666666666666667 0  -0.3333333333333334 -0.8666666666666667 0  -0.2666666666666667 -0.8666666666666667 0  -0.2 -0.8666666666666667 0  -0.1333333333333333 -0.8666666666666667 0  -0.06666666666666665 -0.8666666666666667 0  0 -0.8666666666666667 0  0.06666666666666665 -0.8666666666666667 0  0.1333333333333333 -0.8666666666666667 0  0.2 -0.8666666666666667 0  0.2666666666666666 -0.8666666666666667 0  0.3333333333333333 -0.8666666666666667 0  0.3999999999999999 -0.8666666666666667 0  0.4666666666666666 -0.8666666666666667 0  0.5333333333333334 -0.8666666666666667 0  0.6000000000000001 -0.8666666666666667 0  0.6666666666666667 -0.8666666666666667 0  0.7333333333333334 -0.8666666666666667 0  0.8 -0.8666666666666667 0  0.8666666666666667 -0.8666666666666667 0  0.9333333333333333 -0.8666666666666667 0  1 -0.8666666666666667 0  -1 -0.8 0  -0.9333333333333333 -0.8 0  -0.8666666666666667 -0.8 0  -0.8 -0.8 0  -0.7333333333333334 -0.8 0  -0.6666666666666667 -0.8 0  -0.6 -0.8 0  -0.5333333333333333 -0.8 0  -0.4666666666666667 -0.8 0  -0.4 -0.8 0  -0.3333333333333334 -0.8 0  -0.2666666666666667 -0.8 0  -0.2 -0.8 0  -0.1333333333333333 -0.8 0  -0.06666666666666665 -0.8 0  0 -0.8 0  0.06666666666666665 -0.8 0  0.1333333333333333 -0.8 0  0.2 -0.8 0  0.2666666666666666 -0.8 0  0.3333333333333333 -0.8 0  0.3999999999999999 -0.8 0  0.4666666666666666 -0.8 0  0.5333333333333334 -0.8 0  0.6000000000000001 -0.8 0  0.6666666666666667 -0.8 0  0.7333333333333334 -0.8 0  0.8 -0.8 0  0.8666666666666667 -0.8 0  0.9333333333333333 -0.8 0  1 -0.8 0  -1 -0.7333333333333334 0  -0.9333333333333333 -0.7333333333333334 0  -0.8666666666666667 -0.7333333333333334 0  -0.8 -0.7333333333333334 0  -0.7333333333333334 -0.7333333333333334 0  -0.6666666666666667 -0.7333333333333334 0  -0.6 -0.7333333333333334 0  -0.5333333333333333 -0.7333333333333334 0  -0.4666666666666667 -0.7333333333333334 0  -0.4 -0.7333333333333334 0  -0.3333333333333334 -0.7333333333333334 0  -0.2666666666666667 -0.7333333333333334 0  -0.2 -0.7333333333333334 0  -0.1333333333333333 -0.7333333333333334 0  -0.06666666666666665 -0.7333333333333334 0  0 -0.7333333333333334 0  0.06666666666666665 -0.7333333333333334 0  0.1333333333333333 -0.7333333333333334 0  0.2 -0.7333333333333334 0  0.2666666666666666 -0.7333333333333334 0  0.3333333333333333 -0.7333333333333334 0  0.3999999999999999 -0.7333333333333334 0  0.4666666666666666 -0.7333333333333334 0  0.5333333333333334 -0.7333333333333334 0  0.6000000000000001 -0.7333333333333334 0  0.6666666666666667 -0.7333333333333334 0  0.7333333333333334 -0.7333333333333334 0  0.8 -0.7333333333333334 0  0.8666666666666667 -0.7333333333333334 0  0.9333333333333333 -0.7333333333333334 0  1 -0.7333333333333334 0  -1 -0.6666666666666667 0  -0.9333333333333333 -0.6666666666666667 0  -0.8666666666666667 -0.6666666666666667 0  -0.8 -0.6666666666666667 0  -0.7333333333333334 -0.6666666666666667 0  -0.6666666666666667 -0.6666666666666667 0  -0.6 -0.6666666666666667 0  -0.5333333333333333 -0.6666666666666667 0  -0.4666666666666667 -0.6666666666666667 0  -0.4 -0.6666666666666667 0  -0.3333333333333334 -0.6666666666666667 0  -0.2666666666666667 -0.6666666666666667 0  -0.2 -0.6666666666666667 0  -0.1333333333333333 -0.6666666666666667 0  -0.06666666666666665 -0.6666666666666667 0  0 -0.6666666666666667 0  0.06666666666666665 -0.6666666666666667 0  0.1333333333333333 -0.6666666666666667 0  0.2 -0.6666666666666667 0  0.2666666666666666 -0.6666666666666667 0  0.3333333333333333 -0.6666666666666667 0  0.3999999999999999 -0.6666666666666667 0  0.4666666666666666 -0.6666666666666667 0  0.5333333333333334 -0.6666666666666667 0  0.6000000000000001 -0.6666666666666667 0  0.6666666666666667 -0.6666666666666667 0  0.7333333333333334 -0.6666666666666667 0  0.8 -0.6666666666666667 0  0.8666666666666667 -0.6666666666666667 0  0.9333333333333333 -0.6666666666666667 0  1 -0.6666666666666667 0  -1 -0.6 0  -0.9333333333333333 -0.6 0  -0.8666666666666667 -0.6 0  -0.8 -0.6 0  -0.7333333333333334 -0.6 0  -0.6666666666666667 -0.6 0  -0.6 -0.6 0  -0.5333333333333333 -0.6 0  -0.4666666666666667 -0.6 0  -0.4 -0.6 0  -0.3333333333333334 -0.6 0  -0.2666666666666667 -0.6 0  -0.2 -0.6 0  -0.1333333333333333 -0.6 0  -0.06666666666666665 -0.6 0  0 -0.6 0  0.06666666666666665 -0.6 0  0.1333333333333333 -0.6 0  0.2 -0.6 0  0.2666666666666666 -0.6 0  0.3333333333333333 -0.6 0  0.3999999999999999 -0.6 0  0.4666666666666666 -0.6 0  0.5333333333333334 -0.6 0  0.6000000000000001 -0.6 0  0.6666666666666667 -0.6 0  0.7333333333333334 -0.6 0  0.8 -0.6 0  0.8666666666666667 -0.6 0  0.9333333333333333 -0.6 0  1 -0.6 0  -1 -0.5333333333333333 0  -0.9333333333333333 -0.5333333333333333 0  -0.8666666666666667 -0.5333333333333333 0  -0.8 -0.5333333333333333 0  -0.7333333333333334 -0.5333333333333333 0  -0.6666666666666667 -0.5333333333333333 0  -0.6 -0.5333333333333333 0  -0.5333333333333333 -0.5333333333333333 0  -0.4666666666666667 -0.5333333333333333 0  -0.4 -0.5333333333333333 0  -0.3333333333333334 -0.5333333333333333 0  -0.2666666666666667 -0.5333333333333333 0  -0.2 -0.5333333333333333 0  -0.1333333333333333 -0.5333333333333333 0  -0.06666666666666665 -0.5333333333333333 0  0 -0.5333333333333333 0  0.06666666666666665 -0.5333333333333333 0  0.1333333333333333 -0.5333333333333333 0  0.2 -0.5333333333333333 0  0.2666666666666666 -0.5333333333333333 0  0.3333333333333333 -0.5333333333333333 0  0.3999999999999999 -0.5333333333333333 0  0.4666666666666666 -0.5333333333333333 0  0.5333333333333334 -0.5333333333333333 0  0.6000000000000001 -0.5333333333333333 0  0.6666666666666667 -0.5333333333333333 0  0.7333333333333334 -0.5333333333333333 0  0.8 -0.5333333333333333 0  0.8666666666666667 -0.5333333333333333 0  0.9333333333333333 -0.5333333333333333 0  1 -0.5333333333333333 0  -1 -0.4666666666666667 0  -0.9333333333333333 -0.4666666666666667 0  -0.8666666666666667 -0.4666666666666667 0  -0.8 -0.4666666666666667 0  -0.7333333333333334 -0.4666666666666667 0  -0.6666666666666667 -0.4666666666666667 0  -0.6 -0.4666666666666667 0  -0.5333333333333333 -0.4666666666666667 0  -0.4666666666666667 -0.4666666666666667 0  -0.4 -0.4666666666666667 0  -0.3333333333333334 -0.4666666666666667 0  -0.2666666666666667 -0.4666666666666667 0  -0.2 -0.4666666666666667 0  -0.1333333333333333 -0.4666666666666667 0  -0.06666666666666665 -0.4666666666666667 0  0 -0.4666666666666667 0  0.06666666666666665 -0.4666666666666667 0  0.1333333333333333 -0.4666666666666667 0  0.2 -0.4666666666666667 0  0.2666666666666666 -0.4666666666666667 0  0.3333333333333333 -0.4666666666666667 0  0.3999999999999999 -0.4666666666666667 0  0.4666666666666666 -0.4666666666666667 0  0.5333333333333334 -0.4666666666666667 0  0.6000000000000001 -0.4666666666666667 0  0.6666666666666667 -0.4666666666666667 0  0.7333333333333334 -0.4666666666666667 0  0.8 -0.4666666666666667 0  0.8666666666666667 -0.4666666666666667 0  0.9333333333333333 -0.4666666666666667 0  1 -0.4666666666666667 0  -1 -0.4 0  -0.9333333333333333 -0.4 0  -0.8666666666666667 -0.4 0  -0.8 -0.4 0  -0.7333333333333334 -0.4 0  -0.6666666666666667 -0.4 0  -0.6 -0.4 0  -0.5333333333333333 -0.4 0  -0.4666666666666667 -0.4 0  -0.4 -0.4 0  -0.3333333333333334 -0.4 0  -0.2666666666666667 -0.4 0  -0.2 -0.4 0  -0.1333333333333333 -0.4 0  -0.06666666666666665 -0.4 0  0 -0.4 0  0.06666666666666665 -0.4 0  0.1333333333333333 -0.4 0  0.2 -0.4 0  0.2666666666666666 -0.4 0  0.3333333333333333 -0.4 0  0.3999999999999999 -0.4 0  0.4666666666666666 -0.4 0  0.5333333333333334 -0.4 0  0.6000000000000001 -0.4 0  0.6666666666666667 -0.4 0  0.7333333333333334 -0.4 0 
[...]
<PointData  Scalars="f_24"> 
<DataArray  type="Float64"  Name="f_24"  format="ascii">0.0000000000000000e+00  0.0000000000000000e+00  0.0000000000000000e+00  0.0000000000000000e+00  0.0000000000000000e+00  0.0000000000000000e+00  0.0000000000000000e+00  0.0000000000000000e+00  0.0000000000000000e+00  0.0000000000000000e+00  0.0000000000000000e+00  0.0000000000000000e+00  0.0000000000000000e+00  0.0000000000000000e+00  0.0000000000000000e+00  0.0000000000000000e+00  0.0000000000000000e+00  0.0000000000000000e+00  0.0000000000000000e+00  0.0000000000000000e+00  0.0000000000000000e+00  0.0000000000000000e+00  0.0000000000000000e+00  0.0000000000000000e+00  0.0000000000000000e+00  -2.2548310767102948e-07  0.0000000000000000e+00  -3.6712443410792254e-07  0.0000000000000000e+00  0.0000000000000000e+00  1.3634300623459380e+01  0.0000000000000000e+00  1.2380556806091772e+07  1.3471182839538336e+07  1.9606950604655530e+07  1.4027930342420612e+07  1.9258786315674771e+07  1.0844266824761029e+07  1.8242895188043755e+07  7.5599654419991719e+06  1.7003470489762552e+07  5.2799992555782879e+06  1.6554524540584493e+07  3.0152671523098666e+06  1.7251761602281883e+07  1.3272677815529208e+06  1.8051636838551853e+07  7.4050898717474041e+05  1.9218310516546112e+07  6.8987333767141856e+05  2.1110986910614070e+07  1.4440786356621610e+06  2.4634891535915855e+07  7.7195998454418895e+05  3.6292209299245417e+07  -6.2003821753571816e+06  6.3656771852053635e+07  -1.9505209403502490e+07  1.0577320347965086e+08  -1.1974525439434331e+07  2.3040647333376449e+08  1.1905286147235770e+01  0.0000000000000000e+00  1.3471182817912387e+07  1.4718529299001349e+07  5.7104621457130648e+06  2.3308933462768444e+06  -4.4017401978749549e+06  -4.0676381482144138e+06  -9.1713235527314842e+06  -7.4014746535650901e+06  -1.0065837484035086e+07  -8.4938695813221186e+06  -1.0953262461364832e+07  -8.0516333547464963e+06  -1.1291093056434583e+07  -8.5721469778113570e+06  -1.0667801848702854e+07  -9.3753242853018679e+06  -1.0814972660371972e+07  -9.7957236344153993e+06  -1.1028814116768757e+07  -1.0610404453551559e+07  -1.2647140508178933e+07  -7.9834294664883511e+06  -2.1690125607485972e+07  -1.5616340957897531e+06  -3.5163298243814483e+07  2.9297982572511062e+06  -3.0396474538167238e+07  -1.8780971234532833e+07  -1.1974534021800460e+07  1.0346178619121490e+01  5.6677267118392790e-10  1.9606950595202520e+07  5.7104621494020186e+06  1.8168630052476528e+06  -5.1253105952445632e+06  1.1694982668145471e+06  -5.1246026808849974e+06  4.0095042482992006e+06  -2.3044006721219677e+06  7.2842448341902895e+06  -2.2020676045312379e+06  1.0759746544554548e+07  -2.4696782146925223e+06  1.2060718063043250e+07  -2.1387707450530776e+06  1.3215894176677173e+07  -3.3235871198667162e+06  1.5180993575529849e+07  -4.5298933702412965e+06  1.5681410539903179e+07  -5.7003001802864447e+06  1.8855764514147982e+07  -1.1902033444340317e+07  3.1285863595609989e+07  -1.9936122275055073e+07  4.8262206390708692e+07  -3.2179509524918947e+07  5.7728361640008919e+07  -3.0396473947839849e+07  1.0577320514698730e+08  8.9454644413159201e+00  0.0000000000000000e+00  1.4027930275316281e+07  2.3308933669504784e+06  -5.1253106015527733e+06  3.7350140210971091e+05  -4.9535546996690212e+06  4.8841174484232243e+05  -3.4580131499153003e+06  1.8835311914451540e+04  -5.5252009161122292e+06  1.4942393602709440e+05  -6.5422447902778499e+06  -1.5942335572873857e+06  -6.1638602113528103e+06  -2.5092761577155022e+06  -7.0622579843216743e+06  -2.2433675229659318e+06  -7.1547470016084071e+06  -3.7158386185283237e+06  -5.4860662784899203e+06  -3.8603109918534104e+06  -9.4974434651993439e+06  5.0338210900833335e+05  -2.2478327961816397e+07  3.5258318735943036e+06  -3.2535124756355133e+07  1.2497757007149888e+07  -3.2179518554187320e+07  2.9298043514040741e+06  -1.9505216588564739e+07  7.6920347675382397e+00  -5.2568451272639652e-12  1.9258786296389822e+07  -4.4017401584623484e+06  1.1694982736481305e+06  -4.9535547035914334e+06  1.4495723681120316e+06  -2.9977318148968676e+06  3.4918995536157717e+06  -4.4240744011282614e+06  6.6335529702688260e+06  -4.0508179740225752e+06  7.5014026072826954e+06  -3.2569155419554929e+06  9.4431634759919923e+06  -4.5728734234303627e+06  1.1919489674075479e+07  -5.3860499031934729e+06  1.2219915601442220e+07  -4.9913120036578188e+06  1.2774877694112154e+07  -8.5321130136492811e+06  2.1034584129304186e+07  -1.4602234567420639e+07  3.4292856341536023e+07  -2.1372467519625530e+07  3.9855868135218002e+07  -3.2535135663800411e+07  4.8262216664935306e+07  -3.5163299355616704e+07  6.3656771282669649e+07  6.5751835568380512e+00  0.0000000000000000e+00  1.0844266727189703e+07  -4.0676380891311076e+06  -5.1246027364293821e+06  4.8841175720935670e+05  -2.9977318199688639e+06  2.8219682581039406e+06  -4.5873541479753228e+06  3.9321291032759179e+06  -4.4239343779742131e+06  2.0682448011970688e+06  -4.5756087757498948e+06  1.9366678880913667e+06  -6.2069135449123448e+06  1.8345283293457271e+06  -6.2746047272600811e+06  2.3822109160169022e+05  -4.8275396852108836e+06  -1.0603320269703050e+06  -5.2428472729261285e+06  1.3866219735366148e+06  -1.2558592755547900e+07  2.8130520035180454e+06  -1.9073083990608025e+07  6.5465364900450222e+06  -2.1372493652856220e+07  3.5258520667329961e+06  -1.9936129965796225e+07  -1.5616349674223391e+06  -6.2003846204559766e+06  5.5846095353689629e+00  -6.2382127090859422e-09  1.8242895177509535e+07  -9.1713234943608884e+06  4.0095042427580822e+06  -3.4580131276240558e+06  3.4918995584798446e+06  -4.5873541534106173e+06  4.6059466279478837e+06  -4.1669824299856881e+06  4.4099264212155528e+06  -4.3486147877318328e+06  6.9266666947175460e+06  -5.5434533549590372e+06  8.4812301750017591e+06  -5.3463777985417703e+06  9.1797213637655824e+06  -5.4174679023552593e+06  9.8870364985080194e+06  -6.3892226550023444e+06  1.2808444841166025e+07  -1.0161333695003297e+07  2.1524913606916022e+07  -1.3194030955857171e+07  2.6384190686589450e+07  -1.9073129386209823e+07  3.4292893756811574e+07  -2.2478335494704802e+07  3.1285856934517156e+07  -2.1690118397033740e+07  3.6292208137609594e+07  4.7104152108265378e+00  0.0000000000000000e+00  7.5599653131087292e+06  -7.4014745699746385e+06  -2.3044007634352515e+06  1.8835344945830464e+04  -4.4240744510497143e+06  3.9321291245625280e+06  -4.1669824389545796e+06  3.7709273166241213e+06  -4.5357640276302537e+06  4.9981528708648346e+06  -5.6902546668840516e+06  3.8746776490652566e+06  -5.3979852641187757e+06  3.1276685261229137e+06  -5.9646864986042576e+06  2.6484153943716479e+06  -5.1337411915623015e+06  1.6350672212380115e+06  -6.6853669190658191e+06  2.9414741988049364e+06  -1.2081576217960846e+07  4.0786284715085584e+06  -1.3194115561294029e+07  2.8131200321310554e+06  -1.4602249607747825e+07  5.0336609524430404e+05  -1.1902021238613112e+07  -7.9834308382184133e+06  7.7195502293021232e+05  3.9431070701840758e+00  -1.0813124526045891e-09  1.7003470490100063e+07  -1.0065837398671510e+07  7.2842448150049970e+06  -5.5252008843243821e+06  6.6335529925052067e+06  -4.4239343736370318e+06  4.4099264280111864e+06  -4.5357640323857442e+06  5.6603651565977857e+06  -5.5947717931576893e+06  5.4531465371241337e+06  -5.1713343970990358e+06  7.3327949354987005e+06  -6.5180365102989161e+06  8.7416466916896850e+06  -5.9583746681478480e+06  7.8025957168037351e+06  -6.0437717168218335e+06  1.2235222189533029e+07  -9.4078467366932388e+06  1.7539347059123904e+07  -1.2081720849249633e+07  2.1525032399673030e+07  -1.2558613617271377e+07  2.1034549367866680e+07  -9.4974127253505271e+06  1.8855759407752581e+07  -1.2647145440114904e+07  2.4634894788232096e+07  3.2735953608583808e+00  0.0000000000000000e+00  5.2799991011603987e+06  -8.4938694808814954e+06  -2.2020677533075013e+06  1.4942402027261062e+05  -4.0508180725912210e+06  2.0682448336973621e+06  -4.3486148321744287e+06  4.9981528961903183e+06  -5.5947718081669239e+06  4.7473418914891528e+06  -5.0892834645098569e+06  5.9975178509042524e+06  -6.9399334481970733e+06  5.1993594170891885e+06  -5.5572362239071205e+06  2.5805059460889064e+06  -3.8679006627811086e+06  3.1151377884008749e+06  -8.8777178576474600e+06  4.9574453175659208e+06  -9.4080872551906612e+06  2.9416732662055409e+06  -1.0161366851822548e+07  1.3865547285321159e+06  -8.5320559482056573e+06  -3.8603204963951828e+06  -5.7003157963643027e+06  -1.0610393752678232e+07  1.4440753718431874e+06  2.6931951848808664e+00  -3.9598199541539497e-09  1.6554524556056105e+07  -1.0953262369288960e+07  1.0759746545888817e+07  -6.5422447488910500e+06  7.5014026177052921e+06  -4.5756087513228385e+06  6.9266667271374818e+06  -5.6902546814300753e+06  5.4531465540431868e+06  -5.0892834703636756e+06  6.7368046513248980e+06  -7.2942866688738940e+06  6.4785926895881258e+06  -5.1817549926433191e+06  6.1272726290038908e+06  -4.8212690641703904e+06  7.1108153057368901e+06  -7.6720742463962631e+06  1.2796179019091303e+07  -8.8780914646197259e+06  1.2235538337685885e+07  -6.6854125608405434e+06  1.2808322641142821e+07  -5.2427413139510052e+06  1.2774860122634729e+07  -5.4860946696492424e+06  1.5681432228415992e+07  -1.1028815331327513e+07  2.1110983243886605e+07  2.1936243105553697e+00  0.0000000000000000e+00  3.0152669522327408e+06  -8.0516332142677484e+06  -2.4696784285793873e+06  -1.5942334490048867e+06  -3.2569156796670910e+06  1.9366679658262262e+06  -5.5434534710391173e+06  3.8746777008939311e+06  -5.1713344477493279e+06  5.9975178834716808e+06  -7.2942866958339773e+06  5.7528910646270709e+06  -4.5296692548334142e+06  5.0862344350192044e+06  -6.0639031699660914e+06  4.3500669791387785e+06  -5.6812347653698875e+06  5.2700203346337918e+06  -7.6726181250913450e+06  3.1156091662268727e+06  -6.0438334294144334e+06  1.6348606834645355e+06  -6.3890444182025762e+06  -1.0603599285381369e+06  -4.9913683602032447e+06  -3.7157956458088821e+06  -4.5298982282961858e+06  -9.7957336624063756e+06  6.8987632481415477e+05  1.7670053608003355e+00  -3.4702975246539887e-07  1.7251761652164884e+07  -1.1291092960909912e+07  1.2060718068172252e+07  -6.1638601384045398e+06  9.4431634996642154e+06  -6.2069135384483049e+06  8.4812302313704807e+06  -5.3979852659974620e+06  7.3327949865126954e+06  -6.9399334928560415e+06  6.4785927327816347e+06  -4.5296692645607609e+06  5.7980324549831795e+06  -7.6109251001909804e+06  6.5643227199517712e+06  -3.9419038782159914e+06  5.5898459018597221e+06  -5.6819630322204977e+06  7.1114675594863491e+06  -3.8679757171158707e+06  7.8022715944962827e+06  -5.1334580980771426e+06  9.8869958508295957e+06  -4.8276385614365255e+06  1.2219992735179229e+07  -7.1547524170471746e+06  1.5180970047941396e+07  -1.0814959273191493e+07  1.9218310892896831e+07  1.4058647189777171e+00  0.0000000000000000e+00  1.3272675143245140e+06  -8.5721468072448932e+06  -2.1387710118094436e+06  -2.5092760106568690e+06  -4.5728736541629620e+06  1.8345284743351869e+06  -5.3463779759663502e+06  3.1276686253641890e+06  -6.5180366618960835e+06  5.1993595134519376e+06  -5.1817550660888795e+06  5.0862344732833393e+06  -7.6109251494403519e+06  6.5377373675191309e+06  -2.3905060075212633e+06  7.3562207533980871e+05  -3.9427953152107508e+06  4.3508965331386374e+06  -4.8213551391092185e+06  2.5800391951040705e+06  -5.9579619104115618e+06  2.6483629838964385e+06  -5.4176341258975789e+06  2.3835097144508845e+05  -5.3860591590032578e+06  -2.2434123561244928e+06  -3.3235618968538600e+06  -9.3753218402645607e+06  7.4050105532575957e+05  1.1031327477272024e+00  1.4995315412988540e-08  1.8051636922792744e+07  -1.0667801723275937e+07  1.3215894195948346e+07  -7.0622579227296328e+06  1.1919489754008276e+07  -6.2746047302694935e+06  9.1797214472599719e+06  -5.9646865388260316e+06  8.7416468185521774e+06  -5.5572362875938108e+06  6.1272727229426391e+06  -6.0639032778576678e+06  6.5643228615219072e+06  -2.3905060672114757e+06  -2.4471321689526198e+05  -2.3914939005262260e+06  6.5652844150465736e+06  -6.0639947002032800e+06  6.1266613895750511e+06  -5.5566823710625265e+06  8.7415859644961730e+06  -5.9649408716448108e+06  9.1799221963675674e+06  -6.2746142132299412e+06  1.1919410055885894e+07  -7.0622098015555339e+06  1.3215898811644522e+07  -1.0667819035727484e+07  1.8051642725593004e+07  8.5214378896621124e-01  0.0000000000000000e+00  7.4050863397417974e+05  -9.3753240692488402e+06  -3.3235875024302779e+06  -2.2433672788532348e+06  -5.3860502528636409e+06  2.3822130245698063e+05  -5.4174681935026264e+06  2.6484156140961475e+06  -5.9583749529907992e+06  2.5805061337275966e+06  -4.8212693076469526e+06  4.3500671984346937e+06  -3.9419040508934562e+06  7.3562207530106138e+05  -2.3914938408218124e+06  6.5387481696649939e+06  -7.6110188750191880e+06  5.0855130278133517e+06  -5.1810792868808452e+06  5.1992957965490026e+06  -6.5183928162376340e+06  3.1279532350203223e+06  -5.3463859957463304e+06  1.8343996261438229e+06  -4.5727952102643372e+06  -2.5092662325473004e+06  -2.1388068087905739e+06  -8.5721324170596749e+06  1.3272694870940340e+06  6.4663616388989575e-01  0.0000000000000000e+00  1.9218310649198025e+07  -1.0814972524074936e+07  1.5180993668577628e+07  -7.1547469732458368e+06  1.2219915739484653e+07  -4.8275397177094659e+06  9.8870366870485861e+06  -5.1337413188266391e+06  7.8025959287036182e+06  -3.8679007799707744e+06  7.1108155020886753e+06  -5.6812348662139066e+06  5.5898459017721368e+06  -3.9427951424244521e+06  6.5652842734882655e+06  -7.6110188257678235e+06  5.7972695193269355e+06  -4.5289215406853650e+06  6.4785297892528540e+06  -6.9403814446160831e+06  7.3331615558544099e+06  -5.3979863837951710e+06  8.4810397299375068e+06  -6.2067949822766511e+06  9.4431812156212591e+06  -6.1639206701468760e+06  1.2060743590380313e+07  -1.1291084393309237e+07  1.7251752145879950e+07  4.8075216994584036e-01  0.0000000000000000e+00  6.8987282639936416e+05  -9.7957233009138200e+06  -4.5298939420766020e+06  -3.7158382671528314e+06  -4.9913124923766889e+06  -1.0603317034206637e+06  -6.3892231092206519e+06  1.6350675181735675e+06  -6.0437720440458730e+06  3.1151379528920506e+06  -7.6720744425500939e+06  5.2700203345781034e+06  -5.6819629312103558e+06  4.3508963137086025e+06  -6.0639945923724538e+06  5.0855129895258639e+06  -4.5289215309644714e+06  5.7528290158280907e+06  -7.2947904326891182e+06  5.9979452511301581e+06  -5.1713269231326217e+06  3.8744237525895606e+06  -5.5432929383482449e+06  1.9366978497630362e+06  -3.2570107310321862e+06  -1.5941925187948935e+06  -2.4696622638487620e+06  -8.0516558405293720e+06  3.0152715065971497e+06  3.4903809596056018e-01  0.0000000000000000e+00  2.1110987136466790e+07  -1.1028813967049101e+07  1.5681410696928751e+07  -5.4860662300783610e+06  1.2774877877595464e+07  -5.2428473102680594e+06  1.2808445044922769e+07  -6.6853669338762704e+06  1.2235222273051776e+07  -8.8777177907639984e+06  1.2796179018955655e+07  -7.6726179288817234e+06  7.1114673630572511e+06  -4.8213548954533199e+06  6.1266612957745539e+06  -5.1810792133661555e+06  6.4785297460933654e+06  -7.2947904057235327e+06  6.7372545373143172e+06  -5.0892691905073328e+06  5.4528436005421514e+06  -5.6900573494735071e+06  6.9267107914628303e+06  -4.5757415334814591e+06  7.5014606412739214e+06  -6.5422159441411924e+06  1.0759705665262716e+07  -1.0953251434309030e+07  1.6554530758054383e+07  2.4644419188650474e-01  0.0000000000000000e+00  1.4440778743712783e+06  -1.0610403996559244e+07  -5.7003009233959541e+06  -3.8603106007621093e+06  -8.5321135908114947e+06  1.3866222751973998e+06  -1.0161334092755746e+07  2.9414743085512402e+06  -9.4078469206426349e+06  4.9574453170489911e+06  -8.8780915309054162e+06  3.1156090017202729e+06  -3.8679756000135699e+06  2.5800390071943188e+06  -5.5566823076273985e+06  5.1992957000284782e+06  -6.9403814000427192e+06  5.9979452185238069e+06  -5.0892691846570056e+06  4.7470204002639418e+06  -5.5945534331812048e+06  4.9982091182545004e+06  -4.3487824223977905e+06  2.0683193535285506e+06  -4.0507756949623693e+06  1.4936227659299623e+05  -2.2020521455577794e+06  -8.4938536452645306e+06  5.2799874501762493e+06  1.6832469905505415e-01  0.0000000000000000e+00  2.4634891817448672e+07  -1.2647140192718796e+07  1.8855764639694285e+07  -9.4974432994866949e+06  2.1034584294750970e+07  -1.2558592660686070e+07  2.1524913693464808e+07  -1.2081576045736374e+07  1.7539347058856852e+07  -9.4080870702918302e+06  1.2235538253306806e+07  -6.0438331021305081e+06  7.8022713829236431e+06  -5.9579616250946810e+06  8.7415858380619474e+06  -6.5183926643195841e+06  7.3331615050289175e+06  -5.1713268723802622e+06  5.4528435836632196e+06  -5.5945534181682095e+06  5.6604261968169976e+06  -4.5359521705475124e+06  4.4100126500722421e+06  -4.4238782033272460e+06  6.6334699840994012e+06  -5.5251793548593652e+06  7.2842715774213299e+06  -1.0065860425661329e+07  1.7003473204071216e+07  1.1043754523255819e-01  0.0000000000000000e+00  7.7195892874710122e+05  -7.9834289285509847e+06  -1.1902034364913380e+07  5.0338248930102133e+05  -1.4602235191348756e+07  2.8130521885192110e+06  -1.3194031292945851e+07  4.0786284705439568e+06  -1.2081721021079756e+07  2.9416731560655087e+06  -6.6854125450743884e+06  1.6348603862745941e+06  -5.1334579715047590e+06  2.6483627633217201e+06  -5.9649408321823748e+06  3.1279531351828128e+06  -5.3979863823185852e+06  3.8744237005314664e+06  -5.6900573350463929e+06  4.9982090928876158e+06  -4.5359521657956308e+06  3.7710178033121061e+06  -4.1669180888998951e+06  3.9320302581348661e+06  -4.4240493249185877e+06  1.8874005077651138e+04  -2.3044372163229482e+06  -7.4014701890078057e+06  7.5599734545374345e+06  6.8945796732950190e-02  2.2058050483544975e-08  3.6292209503249764e+07  -2.1690125000025548e+07  3.1285863762862895e+07  -2.2478327710663266e+07  3.4292856525843769e+07  -1.9073083723679356e+07  2.6384190684455212e+07  -1.3194115220158011e+07  2.1525032312092539e+07  -1.0161366454483302e+07  1.2808322436546620e+07  -6.3890439632719392e+06  9.8869956636224929e+06  -5.4176338332239967e+06  9.1799221142529789e+06  -5.3463858172164215e+06  8.4810396743653249e+06  -5.5432928217620822e+06  6.9267107593242181e+06  -4.3487823778188322e+06  4.4100126433201851e+06  -4.1669180799267576e+06  4.6058418008979820e+06  -4.5873266963863363e+06  3.4919471466155723e+06  -3.4580597198200254e+06  4.0095083862456563e+06  -9.1713047254309561e+06  1.8242885267612889e+07  4.0414760243118450e-02  0.0000000000000000e+00  -6.2003837413001703e+06  -1.5616333039929578e+06  -1.9936123509723578e+07  3.5258321999842003e+06  -2.1372468182724681e+07  6.5465364911714587e+06  -1.9073129653751153e+07  2.8131198423053296e+06  -1.2558613709422713e+07  1.3865544282276942e+06  -5.2427412762216264e+06  -1.0603602537836777e+06  -4.8276385315401051e+06  2.3835075776118386e+05  -6.2746142127999328e+06  1.8343994790532163e+06  -6.2067949903085344e+06  1.9366977709631424e+06  -4.5757415585578876e+06  2.0683193206798208e+06  -4.4238782078236621e+06  3.9320302368008448e+06  -4.5873266909556398e+06  2.8220192744532456e+06  -2.9977848241766547e+06  4.8841578027613711e+05  -5.1245763441294497e+06  -4.0676552913162289e+06  1.0844265687875502e+07  2.1814880997534987e-02  0.0000000000000000e+00  6.3656771858837962e+07  -3.5163297294456325e+07  4.8262206689562067e+07  -3.2535124209511187e+07  3.9855868123267159e+07  -2.1372492971826721e+07  3.4292893578762457e+07  -1.4602248982759004e+07  2.1034549196210656e+07  -8.5320553733847775e+06  1.2774859940087071e+07  -4.9913678674459849e+06  1.2219992602516266e+07  -5.3860588037443282e+06  1.1919409981012182e+07  -4.5727949753669491e+06  9.4431811951217186e+06  -3.2570105910845948e+06  7.5014606323037995e+06  -4.0507755955424779e+06  6.6334699623029474e+06  -4.4240492748074420e+06  3.4919471418046779e+06  -2.9977848190998752e+06  1.4495762241741971e+06  -4.9535231418857472e+06  1.1694754820283982e+06  -4.4017415848586326e+06  1.9258794635619532e+07  1.0520293690940870e-02  0.0000000000000000e+00  -1.9505212092318442e+07  2.9297993346745861e+06  -3.2179510857302390e+07  1.2497756990531625e+07  -3.2535136271624353e+07  3.5258517044112990e+06  -2.2478335738