<?xml version="1.0"?>
<VTKFile type="UnstructuredGrid"  version="0.1"  >
<UnstructuredGrid>
<Piece  NumberOfPoints="961" NumberOfCells="1800">
<Points>
<DataArray  type="Float64"  NumberOfComponents="3"  format="ascii">-1 -1 0  -0.9333333333333333 -1 0  -0.8666666666666667 -1 0  -0.8 -1 0  -0.7333333333333334 -1 0  -0.6666666666666667 -1 0  -0.6 -1 0  -0.5333333333333333 -1 0  -0.4666666666666667 -1 0  -0.4 -1 0  -0.3333333333333334 -1 0  -0.2666666666666667 -1 0  -0.2 -1 0  -0.1333333333333333 -1 0  -0.06666666666666665 -1 0  0 -1 0  0.06666666666666665 -1 0  0.1333333333333333 -1 0  0.2 -1 0  0.2666666666666666 -1 0  0.3333333333333333 -1 0  0.3999999999999999 -1 0  0.4666666666666666 -1 0  0.5333333333333334 -1 0  0.6000000000000001 -1 0  0.6666666666666667 -1 0  0.7333333333333334 -1 0  0.8 -1 0  0.8666666666666667 -1 0  0.9333333333333333 -1 0  1 -1 0  -1 -0.9333333333333333 0  -0.9333333333333333 -0.9333333333333333 0  -0.8666666666666667 -0.9333333333333333 0  -0.8 -0.9333333333333333 0  -0.7333333333333334 -0.9333333333333333 0  -0.6666666666666667 -0.9333333333333333 0  -0.6 -0.9333333333333333 0  -0.5333333333333333 -0.9333333333333333 0  -0.4666666666666667 -0.9333333333333333 0  -0.4 -0.9333333333333333 0  -0.3333333333333334 -0.9333333333333333 0  -0.2666666666666667 -0.9333333333333333 0  -0.2 -0.9333333333333333 0  -0.1333333333333333 -0.9333333333333333 0  -0.06666666666666665 -0.9333333333333333 0  0 -0.9333333333333333 0  0.06666666666666665 -0.9333333333333333 0  0.1333333333333333 -0.9333333333333333 0  0.2 -0.9333333333333333 0  0.2666666666666666 -0.9333333333333333 0  0.3333333333333333 -0.9333333333333333 0  0.3999999999999999 -0.9333333333333333 0  0.4666666666666666 -0.9333333333333333 0  0.5333333333333334 -0.9333333333333333 0  0.6000000000000001 -0.9333333333333333 0  0.6666666666666667 -0.9333333333333333 0  0.7333333333333334 -0.9333333333333333 0  0.8 -0.9333333333333333 0  0.8666666666666667 -0.9333333333333333 0  0.9333333333333333 -0.9333333333333333 0  1 -0.9333333333333333 0  -1 -0.8666666666666667 0  -0.9333333333333333 -0.8666666666666667 0  -0.8666666666666667 -0.8666666666666667 0  -0.8 -0.8666666666666667 0  -0.7333333333333334 -0.8666666666666667 0  -0.6666666666666667 -0.8666666666666667 0  -0.6 -0.8666666666666667 0  -0.5333333333333333 -0.8666666666666667 0  -0.4666666666666667 -0.8666666666666667 0  -0.4 -0.8666666666666667 0  -0.3333333333333334 -0.8666666666666667 0  -0.2666666666666667 -0.8666666666666667 0  -0.2 -0.8666666666666667 0  -0.1333333333333333 -0.8666666666666667 0  -0.06666666666666665 -0.8666666666666667 0  0 -0.8666666666666667 0  0.06666666666666665 -0.8666666666666667 0  0.1333333333333333 -0.8666666666666667 0  0.2 -0.8666666666666667 0  0.2666666666666666 -0.8666666666666667 0  0.3333333333333333 -0.8666666666666667 0  0.3999999999999999 -0.8666666666666667 0  0.4666666666666666 -0.8666666666666667 0  0.5333333333333334 -0.8666666666666667 0  0.6000000000000001 -0.8666666666666667 0  0.6666666666666667 -0.8666666666666667 0  0.7333333333333334 -0.8666666666666667 0  0.8 -0.8666666666666667 0  0.8666666666666667 -0.8666666666666667 0  0.9333333333333333 -0.8666666666666667 0  1 -0.8666666666666667 0  -1 -0.8 0  -0.9333333333333333 -0.8 0  -0.8666666666666667 -0.8 0  -0.8 -0.8 0  -0.7333333333333334 -0.8 0  -0.6666666666666667 -0.8 0  -0.6 -0.8 0  -0.5333333333333333 -0.8 0  -0.4666666666666667 -0.8 0  -0.4 -0.8 0  -0.3333333333333334 -0.8 0  -0.2666666666666667 -0.8 0  -0.2 -0.8 0  -0.1333333333333333 -0.8 0  -0.06666666666666665 -0.8 0  0 -0.8 0  0.06666666666666665 -0.8 0  0.1333333333333333 -0.8 0  0.2 -0.8 0  0.2666666666666666 -0.8 0  0.3333333333333333 -0.8 0  0.3999999999999999 -0.8 0  0.4666666666666666 -0.8 0  0.5333333333333334 -0.8 0  0.6000000000000001 -0.8 0  0.6666666666666667 -0.8 0  0.7333333333333334 -0.8 0  0.8 -0.8 0  0.8666666666666667 -0.8 0  0.9333333333333333 -0.8 0  1 -0.8 0  -1 -0.7333333333333334 0  -0.9333333333333333 -0.7333333333333334 0  -0.8666666666666667 -0.7333333333333334 0  -0.8 -0.7333333333333334 0  -0.7333333333333334 -0.7333333333333334 0  -0.6666666666666667 -0.7333333333333334 0  -0.6 -0.7333333333333334 0  -0.5333333333333333 -0.7333333333333334 0  -0.4666666666666667 -0.7333333333333334 0  -0.4 -0.7333333333333334 0  -0.3333333333333334 -0.7333333333333334 0  -0.2666666666666667 -0.7333333333333334 0  -0.2 -0.7333333333333334 0  -0.1333333333333333 -0.7333333333333334 0  -0.06666666666666665 -0.7333333333333334 0  0 -0.7333333333333334 0  0.06666666666666665 -0.7333333333333334 0  0.1333333333333333 -0.7333333333333334 0  0.2 -0.7333333333333334 0  0.2666666666666666 -0.7333333333333334 0  0.3333333333333333 -0.7333333333333334 0  0.3999999999999999 -0.7333333333333334 0  0.4666666666666666 -0.7333333333333334 0  0.5333333333333334 -0.7333333333333334 0  0.6000000000000001 -0.7333333333333334 0  0.6666666666666667 -0.7333333333333334 0  0.7333333333333334 -0.7333333333333334 0  0.8 -0.7333333333333334 0  0.8666666666666667 -0.7333333333333334 0  0.9333333333333333 -0.7333333333333334 0  1 -0.7333333333333334 0  -1 -0.6666666666666667 0  -0.9333333333333333 -0.6666666666666667 0  -0.8666666666666667 -0.6666666666666667 0  -0.8 -0.6666666666666667 0  -0.7333333333333334 -0.6666666666666667 0  -0.6666666666666667 -0.6666666666666667 0  -0.6 -0.6666666666666667 0  -0.5333333333333333 -0.6666666666666667 0  -0.4666666666666667 -0.6666666666666667 0  -0.4 -0.6666666666666667 0  -0.3333333333333334 -0.6666666666666667 0  -0.2666666666666667 -0.6666666666666667 0  -0.2 -0.6666666666666667 0  -0.1333333333333333 -0.6666666666666667 0  -0.06666666666666665 -0.6666666666666667 0  0 -0.6666666666666667 0  0.06666666666666665 -0.6666666666666667 0  0.1333333333333333 -0.6666666666666667 0  0.2 -0.6666666666666667 0  0.2666666666666666 -0.6666666666666667 0  0.3333333333333333 -0.6666666666666667 0  0.3999999999999999 -0.6666666666666667 0  0.4666666666666666 -0.6666666666666667 0  0.5333333333333334 -0.6666666666666667 0  0.6000000000000001 -0.6666666666666667 0  0.6666666666666667 -0.6666666666666667 0  0.7333333333333334 -0.6666666666666667 0  0.8 -0.6666666666666667 0  0.8666666666666667 -0.6666666666666667 0  0.9333333333333333 -0.6666666666666667 0  1 -0.6666666666666667 0  -1 -0.6 0  -0.9333333333333333 -0.6 0  -0.8666666666666667 -0.6 0  -0.8 -0.6 0  -0.7333333333333334 -0.6 0  -0.6666666666666667 -0.6 0  -0.6 -0.6 0  -0.5333333333333333 -0.6 0  -0.4666666666666667 -0.6 0  -0.4 -0.6 0  -0.3333333333333334 -0.6 0  -0.2666666666666667 -0.6 0  -0.2 -0.6 0  -0.1333333333333333 -0.6 0  -0.06666666666666665 -0.6 0  0 -0.6 0  0.06666666666666665 -0.6 0  0.1333333333333333 -0.6 0  0.2 -0.6 0  0.2666666666666666 -0.6 0  0.3333333333333333 -0.6 0  0.3999999999999999 -0.6 0  0.4666666666666666 -0.6 0  0.5333333333333334 -0.6 0  0.6000000000000001 -0.6 0  0.6666666666666667 -0.6 0  0.7333333333333334 -0.6 0  0.8 -0.6 0  0.8666666666666667 -0.6 0  0.9333333333333333 -0.6 0  1 -0.6 0  -1 -0.5333333333333333 0  -0.9333333333333333 -0.5333333333333333 0  -0.8666666666666667 -0.5333333333333333 0  -0.8 -0.5333333333333333 0  -0.7333333333333334 -0.5333333333333333 0  -0.6666666666666667 -0.5333333333333333 0  -0.6 -0.5333333333333333 0  -0.5333333333333333 -0.5333333333333333 0  -0.4666666666666667 -0.5333333333333333 0  -0.4 -0.5333333333333333 0  -0.3333333333333334 -0.5333333333333333 0  -0.2666666666666667 -0.5333333333333333 0  -0.2 -0.5333333333333333 0  -0.1333333333333333 -0.5333333333333333 0  -0.06666666666666665 -0.5333333333333333 0  0 -0.5333333333333333 0  0.06666666666666665 -0.5333333333333333 0  0.1333333333333333 -0.5333333333333333 0  0.2 -0.5333333333333333 0  0.2666666666666666 -0.5333333333333333 0  0.3333333333333333 -0.5333333333333333 0  0.3999999999999999 -0.5333333333333333 0  0.4666666666666666 -0.5333333333333333 0  0.5333333333333334 -0.5333333333333333 0  0.6000000000000001 -0.5333333333333333 0  0.6666666666666667 -0.5333333333333333 0  0.7333333333333334 -0.5333333333333333 0  0.8 -0.5333333333333333 0  0.8666666666666667 -0.5333333333333333 0  0.9333333333333333 -0.5333333333333333 0  1 -0.5333333333333333 0  -1 -0.4666666666666667 0  -0.9333333333333333 -0.4666666666666667 0  -0.8666666666666667 -0.4666666666666667 0  -0.8 -0.4666666666666667 0  -0.7333333333333334 -0.4666666666666667 0  -0.6666666666666667 -0.4666666666666667 0  -0.6 -0.4666666666666667 0  -0.5333333333333333 -0.4666666666666667 0  -0.4666666666666667 -0.4666666666666667 0  -0.4 -0.4666666666666667 0  -0.3333333333333334 -0.4666666666666667 0  -0.2666666666666667 -0.4666666666666667 0  -0.2 -0.4666666666666667 0  -0.1333333333333333 -0.4666666666666667 0  -0.06666666666666665 -0.4666666666666667 0  0 -0.4666666666666667 0  0.06666666666666665 -0.4666666666666667 0  0.1333333333333333 -0.4666666666666667 0  0.2 -0.4666666666666667 0  0.2666666666666666 -0.4666666666666667 0  0.3333333333333333 -0.4666666666666667 0  0.3999999999999999 -0.4666666666666667 0  0.4666666666666666 -0.4666666666666667 0  0.5333333333333334 -0.4666666666666667 0  0.6000000000000001 -0.4666666666666667 0  0.6666666666666667 -0.4666666666666667 0  0.7333333333333334 -0.4666666666666667 0  0.8 -0.4666666666666667 0  0.8666666666666667 -0.4666666666666667 0  0.9333333333333333 -0.4666666666666667 0  1 -0.4666666666666667 0  -1 -0.4 0  -0.9333333333333333 -0.4 0  -0.8666666666666667 -0.4 0  -0.8 -0.4 0  -0.7333333333333334 -0.4 0  -0.6666666666666667 -0.4 0  -0.6 -0.4 0  -0.5333333333333333 -0.4 0  -0.4666666666666667 -0.4 0  -0.4 -0.4 0  -0.3333333333333334 -0.4 0  -0.2666666666666667 -0.4 0  -0.2 -0.4 0  -0.1333333333333333 -0.4 0  -0.06666666666666665 -0.4 0  0 -0.4 0  0.06666666666666665 -0.4 0  0.1333333333333333 -0.4 0  0.2 -0.4 0  0.2666666666666666 -0.4 0  0.3333333333333333 -0.4 0  0.3999999999999999 -0.4 0  0.4666666666666666 -0.4 0  0.5333333333333334 -0.4 0  0.6000000000000001 -0.4 0  0.6666666666666667 -0.4 0  0.7333333333333334 -0.4 0 
[...]
<PointData  Scalars="f_24"> 
<DataArray  type="Float64"  Name="f_24"  format="ascii">0.0000000000000000e+00  0.0000000000000000e+00  0.0000000000000000e+00  0.0000000000000000e+00  0.0000000000000000e+00  0.0000000000000000e+00  0.0000000000000000e+00  0.0000000000000000e+00  0.0000000000000000e+00  0.0000000000000000e+00  0.0000000000000000e+00  0.0000000000000000e+00  0.0000000000000000e+00  0.0000000000000000e+00  0.0000000000000000e+00  0.0000000000000000e+00  0.0000000000000000e+00  0.0000000000000000e+00  0.0000000000000000e+00  0.0000000000000000e+00  0.0000000000000000e+00  0.0000000000000000e+00  0.0000000000000000e+00  0.0000000000000000e+00  0.0000000000000000e+00  1.2827578311272850e-07  0.0000000000000000e+00  2.9369954728633799e-07  0.0000000000000000e+00  0.0000000000000000e+00  1.4549966951491703e+01  0.0000000000000000e+00  1.3018299262727711e+07  1.4011452326827867e+07  2.0415245859982595e+07  1.4344912751915846e+07  1.9836673020829305e+07  1.0791266790960193e+07  1.8638748886586662e+07  7.2086604989345875e+06  1.7264777771305274e+07  4.7447944822582006e+06  1.6767898660799865e+07  2.3196242851814488e+06  1.7507826184408106e+07  5.1720874570018769e+05  1.8360617811679330e+07  -1.0925118732536255e+05  1.9605651258333288e+07  -1.6168992829161396e+05  2.1630862623823166e+07  6.5512145864142117e+05  2.5414169577820633e+07  -2.3530149080409537e+04  3.7913216827669941e+07  -7.3763297532940209e+06  6.7234472395897090e+07  -2.1413698144591901e+07  1.1238193554860353e+08  -1.3127382650551416e+07  2.4567919790314093e+08  1.2704833549898769e+01  0.0000000000000000e+00  1.4011452303297134e+07  1.5088609700038388e+07  5.3387791634921441e+06  1.6996560452279339e+06  -5.4394742909334879e+06  -4.9911870348425424e+06  -1.0321081729728902e+07  -8.3129039208814958e+06  -1.1041987968284711e+07  -9.2655160179375559e+06  -1.1806619428004853e+07  -8.6466127741616517e+06  -1.2056792588338843e+07  -9.1280964945016634e+06  -1.1354023035350367e+07  -9.9827971001967844e+06  -1.1545044796350403e+07  -1.0501566617305458e+07  -1.1881007477639023e+07  -1.1515836065719986e+07  -1.3788199446373114e+07  -8.9230567170614898e+06  -2.3666292165669437e+07  -2.2977048737314069e+06  -3.8240039364993758e+07  2.3706498161806483e+06  -3.3159342480843108e+07  -2.0629181595120311e+07  -1.3127391808767661e+07  1.1041017882863772e+01  -1.1902226094862486e-08  2.0415245849016607e+07  5.3387791671612943e+06  1.1786194315249133e+06  -6.0678409306922350e+06  8.8181824634724832e+05  -5.5992031108309785e+06  4.3465264859083388e+06  -2.2398941849035444e+06  8.0945249150680527e+06  -1.9619143390162690e+06  1.1904945859402981e+07  -2.1915314925281294e+06  1.3319141170269720e+07  -1.8289386354090183e+06  1.4552585571176417e+07  -3.0964702704777080e+06  1.6642056035824398e+07  -4.3988175622427445e+06  1.7144918634201132e+07  -5.7072140066126762e+06  2.0427438867330071e+07  -1.2493848614027504e+07  3.3440333436952952e+07  -2.1408576243193503e+07  5.1137914817350931e+07  -3.4917217437415116e+07  6.0871169844966099e+07  -3.3159341850714210e+07  1.1238193732866569e+08  9.5462330350689246e+00  0.0000000000000000e+00  1.4344912679083863e+07  1.6996560669102424e+06  -6.0678409375375342e+06  1.4083069137577980e+05  -5.2235546582450932e+06  8.0354000813417544e+05  -3.2923904644113840e+06  4.4951841128501756e+05  -5.4814537925989861e+06  5.3333376100117469e+05  -6.6502743071125317e+06  -1.4112342263211482e+06  -6.3163617412706772e+06  -2.4360644989126567e+06  -7.3001888850611597e+06  -2.1529609039229164e+06  -7.3760107856778502e+06  -3.6775692756505436e+06  -5.5288986623309329e+06  -3.7516628628933737e+06  -9.7319008736437447e+06  9.5176824496314046e+05  -2.3609788146878112e+07  4.0238352280396917e+06  -3.4672899393551871e+07  1.3078425519821115e+07  -3.4917227072823472e+07  2.3706563200178784e+06  -2.1413705810972113e+07  8.2086243180553993e+00  -1.2512173055575124e-08  1.9836672998802669e+07  -5.4394742491906844e+06  8.8181825360565749e+05  -5.2235546623215638e+06  1.8756308691524344e+06  -2.7808059977291492e+06  4.1132791911794920e+06  -4.4135540205276161e+06  7.2985053929296518e+06  -4.1726954846328995e+06  8.1020036714279288e+06  -3.4098292963961270e+06  1.0120945369875742e+07  -4.8433843405437395e+06  1.2750747412184671e+07  -5.7100816648119614e+06  1.3085457532953003e+07  -5.2584736563236080e+06  1.3730367646973236e+07  -8.9524760112274718e+06  2.2665524474996168e+07  -1.5274494335376857e+07  3.6971885285927266e+07  -2.2404119570567012e+07  4.2833232238615870e+07  -3.4672911033704668e+07  5.1137925781586632e+07  -3.8240040551108137e+07  6.7234471789551631e+07  7.0167664696622811e+00  0.0000000000000000e+00  1.0791266685281171e+07  -4.9911869719477268e+06  -5.5992031700280551e+06  8.0354002149867720e+05  -2.7808060031481101e+06  3.3758359391269377e+06  -4.6480559355900213e+06  4.3341871816096939e+06  -4.6528740024589738e+06  2.2332225330736144e+06  -4.8735224084571078e+06  2.0664709131503883e+06  -6.6240235937401298e+06  1.9550991367929836e+06  -6.6964796352252113e+06  2.5308923993119368e+05  -5.1504384271257874e+06  -1.1274934641639488e+06  -5.5826219486110425e+06  1.5092428069014170e+06  -1.3332931861166971e+07  3.1417847282087463e+06  -2.0105652376003318e+07  7.3475533771470925e+06  -2.2404147458832342e+07  4.0238567771504950e+06  -2.1408584450437326e+07  -2.2977058035908602e+06  -7.3763323610403715e+06  5.9596664633310024e+00  7.4858552509031300e-09  1.8638748873779304e+07  -1.0321081667393863e+07  4.3465264801403368e+06  -3.2923904404386473e+06  4.1132791963504506e+06  -4.6480559413574478e+06  5.0277790698952191e+06  -4.4094196033616988e+06  4.7085792578077996e+06  -4.6459353169040671e+06  7.3836127633601408e+06  -5.9203519412636319e+06  9.0447384447175488e+06  -5.7086856102108415e+06  9.7904831444650386e+06  -5.7849783287526350e+06  1.0543982177285340e+07  -6.8228898300625021e+06  1.3661545154349286e+07  -1.0843255053616647e+07  2.2976453825762115e+07  -1.4038314646133360e+07  2.8267004804426968e+07  -2.0105700820364922e+07  3.6971925213937670e+07  -2.3609796185894538e+07  3.3440326328224998e+07  -2.3666284470843792e+07  3.7913215589450821e+07  5.0267621008301093e+00  0.0000000000000000e+00  7.2086603599069454e+06  -8.3129038314644396e+06  -2.2398942821865673e+06  4.4951844668914034e+05  -4.4135540738515835e+06  4.3341872043464985e+06  -4.4094196129690381e+06  4.0239179100118610e+06  -4.8447036676900992e+06  5.3295943759069731e+06  -6.0712263080483824e+06  4.1348831198483412e+06  -5.7574943362290040e+06  3.3389064880749770e+06  -6.3616915046195900e+06  2.8280296098983940e+06  -5.4751529051562231e+06  1.7454500758589469e+06  -7.1353148465920072e+06  3.1338726613360727e+06  -1.2895279675122408e+07  4.3579535015381742e+06  -1.4038404933548577e+07  3.1418573255687938e+06  -1.5274510385716386e+07  9.5175115557716042e+05  -1.2493835588817772e+07  -8.9230581809158027e+06  -2.3535442365124243e+04  4.2079222940600509e+00  1.5138374336464247e-08  1.7264777770309225e+07  -1.1041987876841370e+07  8.0945248947152467e+06  -5.4814537585497843e+06  7.2985054165825797e+06  -4.6528739977908479e+06  4.7085792650252813e+06  -4.8447036727323309e+06  6.0357639758808045e+06  -5.9700772486647246e+06  5.8177941596727204e+06  -5.5185486049691560e+06  7.8229125220652902e+06  -6.9562759462640174e+06  9.3255528786844295e+06  -6.3596147490139566e+06  8.3236662931860443e+06  -6.4489935119781736e+06  1.3056693403187081e+07  -1.0037997601258801e+07  1.8710660664113510e+07  -1.2895434019720135e+07  2.2976580596518774e+07  -1.3332954123927951e+07  2.2665487379018836e+07  -9.7318680694085788e+06  2.0427433417588875e+07  -1.3788204709644582e+07  2.5414173049831346e+07  3.4934470878715533e+00  0.0000000000000000e+00  4.7447943163140686e+06  -9.2655159103423320e+06  -1.9619144977132434e+06  5.3333385099192173e+05  -4.1726955898927446e+06  2.2332225677952641e+06  -4.6459353643737957e+06  5.3295944029533099e+06  -5.9700772647123886e+06  5.0658635473990608e+06  -5.4295853977492731e+06  6.3997026116033942e+06  -7.4036689369763052e+06  5.5483950011724820e+06  -5.9277641999255745e+06  2.7546793125330736e+06  -4.1255861595789581e+06  3.3228782733078827e+06  -9.4738147472925801e+06  5.2901800807292638e+06  -1.0038254272741279e+07  3.1340850979016470e+06  -1.0843290437186139e+07  1.5091710457930604e+06  -8.9524151132335700e+06  -3.7516730057644132e+06  -5.7072306717245746e+06  -1.1515824646381855e+07  6.5511797688655602e+05  2.8740675459736713e+00  -3.9598199541539497e-09  1.6767898676342847e+07  -1.1806619329313802e+07  1.1904945860810129e+07  -6.6502742628530469e+06  8.1020036824687086e+06  -4.8735223823338756e+06  7.3836127979008593e+06  -6.0712263235268695e+06  5.8177941777024278e+06  -5.4295854039623626e+06  7.1873188418916706e+06  -7.7831959770824257e+06  6.9117063325907914e+06  -5.5298989410471236e+06  6.5365937703706529e+06  -5.1460114135166863e+06  7.5867510280596772e+06  -8.1849756670518620e+06  1.3654209219167655e+07  -9.4742134453346636e+06  1.3057030783528596e+07  -7.1353635535989869e+06  1.3661414747435119e+07  -5.5825088734763367e+06  1.3730348895380946e+07  -5.5289289601272652e+06  1.7144941778921973e+07  -1.1881008773948729e+07  2.1630858711768948e+07  2.3409459791177158e+00  0.0000000000000000e+00  2.3196240709635341e+06  -8.6466126238631308e+06  -2.1915317208340205e+06  -1.4112341106884442e+06  -3.4098294434165135e+06  2.0664709961464501e+06  -5.9203520651832921e+06  4.1348831751909759e+06  -5.5185486590538919e+06  6.3997026463742005e+06  -7.7831960058832131e+06  6.1386417789783021e+06  -4.8327019654439641e+06  5.4275452244843123e+06  -6.4689422616182072e+06  4.6424581910049589e+06  -6.0616420348398807e+06  5.6211812788134785e+06  -8.1855560720995143e+06  3.3233813083979604e+06  -6.4490593691132078e+06  1.7452296672005667e+06  -6.8226996230458608e+06  -1.1275232395628130e+06  -5.2585337976807263e+06  -3.6775234168451400e+06  -4.3988227467884179e+06  -1.0501577318939066e+07  -1.6168673971784362e+05  1.8856757169133245e+00  2.0405727679028084e-06  1.7507826237140074e+07  -1.2056792486071644e+07  1.3319141175603231e+07  -6.3163616633156864e+06  1.0120945395061389e+07  -6.6240235867762147e+06  9.0447385048062578e+06  -5.7574943381800484e+06  7.8229125764607228e+06  -7.4036689845877159e+06  6.9117063786604153e+06  -4.8327019757915121e+06  6.1856399033139441e+06  -8.1210478754147300e+06  7.0029956330406582e+06  -4.2071033229636317e+06  5.9651640772466669e+06  -6.0624192113474784e+06  7.5874470864932388e+06  -4.1256662544345278e+06  8.3233204030788401e+06  -5.4748507993152132e+06  1.0543938799666533e+07  -5.1505439437128678e+06  1.3085539846854359e+07  -7.3760165646707062e+06  1.6642030927856758e+07  -1.1545030510182915e+07  1.9605651660441302e+07  1.5002812219204178e+00  0.0000000000000000e+00  5.1720846032509371e+05  -9.1280963122645319e+06  -1.8289389202198095e+06  -2.4360643418786139e+06  -4.8433845868072566e+06  1.9550992915536801e+06  -5.7086857996014040e+06  3.3389065940155238e+06  -6.9562761080676327e+06  5.5483951040298669e+06  -5.5298990194503656e+06  5.4275452653278401e+06  -8.1210479279993298e+06  6.9763819021299724e+06  -2.5500082911001942e+06  7.8587755995050713e+05  -4.2080546280175708e+06  4.6433434570404300e+06  -5.1461032691737469e+06  2.7541812150222640e+06  -6.3591742708839430e+06  2.8279736796041601e+06  -5.7851557157336576e+06  2.5322784240809965e+05  -5.7100915422443757e+06  -2.1530087479196060e+06  -3.0964433536996790e+06  -9.9827944909546468e+06  -1.0925965155342297e+05  1.1772180668308152e+00  0.0000000000000000e+00  1.8360617901571274e+07  -1.1354022901377924e+07  1.4552585591521358e+07  -7.3001888191948617e+06  1.2750747497409694e+07  -6.6964796383753298e+06  9.7904832334948499e+06  -6.3616915474701859e+06  9.3255530140059777e+06  -5.9277642678312622e+06  6.5365938705749502e+06  -6.4689423767098570e+06  7.0029957840843778e+06  -2.5500083547475291e+06  -2.6298041949627415e+05  -2.5510625299799340e+06  7.0040219146042764e+06  -6.4690399388808645e+06  6.5359414806522066e+06  -5.9271731508063124e+06  9.3254880730508137e+06  -6.3619629610394323e+06  9.7906974647191837e+06  -6.6964897581972023e+06  1.2750662446840579e+07  -7.3001374662510306e+06  1.4552590517204005e+07  -1.1354041376517357e+07  1.8360624094081100e+07  9.0937293446823142e-01  0.0000000000000000e+00  -1.0925156392977723e+05  -9.9827968696371298e+06  -3.0964706789193456e+06  -2.1529606433057487e+06  -5.7100820379743651e+06  2.5308946497828120e+05  -5.7849786394830188e+06  2.8280298443945553e+06  -6.3596150530023193e+06  2.7546795127889374e+06  -5.1460116733551808e+06  4.6424584250250803e+06  -4.2071035072476659e+06  7.8587755991624331e+05  -2.5510624663348449e+06  6.9774605887674112e+06  -8.1211479481050652e+06  5.4267753682802832e+06  -5.5291778555742390e+06  5.5483271079622684e+06  -6.9566561813889425e+06  3.3392103177801254e+06  -5.7086943579736808e+06  1.9549617900448926e+06  -4.8433008746959381e+06  -2.4360539070779723e+06  -1.8289771212915797e+06  -9.1280809556487575e+06  5.1721056558442774e+05  6.9006361778827807e-01  0.0000000000000000e+00  1.9605651400374804e+07  -1.1545044650980521e+07  1.6642056134830609e+07  -7.3760107552689863e+06  1.3085457680206029e+07  -5.1504384617388919e+06  1.0543982378393920e+07  -5.4751530408853758e+06  8.3236665192498565e+06  -4.1255862845814065e+06  7.5867512375548007e+06  -6.0616421424177457e+06  5.9651640771382656e+06  -4.2080544436037205e+06  7.0040217635823237e+06  -8.1211478955056528e+06  6.1848257296417505e+06  -4.8319040355032450e+06  6.9116392079049237e+06  -7.4041470203505866e+06  7.8233037642419701e+06  -5.7574955310483491e+06  9.0445352094828244e+06  -6.6238970684879739e+06  1.0120964300805068e+07  -6.3164262603102755e+06  1.3319168411858125e+07  -1.2056783343079377e+07  1.7507816092422578e+07  5.1303901625900827e-01  0.0000000000000000e+00  -1.6169047307999316e+05  -1.0501566261581004e+07  -4.3988181727095731e+06  -3.6775689005978554e+06  -5.2584741778239338e+06  -1.1274931188777396e+06  -6.8228903147760946e+06  1.7454503927261885e+06  -6.4489938611679487e+06  3.3228784488270902e+06  -8.1849758763752077e+06  5.6211812787546301e+06  -6.0624191035881396e+06  4.6433432228803039e+06  -6.4690398238772424e+06  5.4267753274121871e+06  -4.8319040251734518e+06  6.1385755630376479e+06  -7.7837335732159615e+06  6.4001587156277457e+06  -5.5185406290907655e+06  4.1346121719675306e+06  -5.9201807512714900e+06  2.0665028870589789e+06  -3.4099308783367998e+06  -1.4111904316443515e+06  -2.1915144704951895e+06  -8.6466367696825638e+06  2.3196289311941899e+06  3.7247915395818765e-01  8.2298557378547960e-09  2.1630862865768500e+07  -1.1881007318046117e+07  1.7144918801401343e+07  -5.5288986105824560e+06  1.3730367842745943e+07  -5.5826219883986600e+06  1.3661545371727973e+07  -7.1353148623823943e+06  1.3056693492311016e+07  -9.4738146759138498e+06  1.3654209219026441e+07  -8.1855558627246479e+06  7.5874468769129664e+06  -5.1461030091515807e+06  6.5359413805978745e+06  -5.5291777770915879e+06  6.9116391618696051e+06  -7.7837335444034794e+06  7.1877989417891139e+06  -5.4295701650825720e+06  5.8174708781407941e+06  -6.0710157389476253e+06  7.3836598215419399e+06  -4.8736640820133127e+06  8.1020656028458346e+06  -6.6502435236047171e+06  1.1904902234681165e+07  -1.1806607659952041e+07  1.6767905294861577e+07  2.6299514337875318e-01  0.0000000000000000e+00  6.5512064748518355e+05  -1.1515835578232139e+07  -5.7072147999003874e+06  -3.7516624455537540e+06  -8.9524766270568836e+06  1.5092431288232559e+06  -1.0843255478052404e+07  3.1338727784425826e+06  -1.0037997797554612e+07  5.2901800801747479e+06  -9.4742135160850473e+06  3.3233811328471685e+06  -4.1256661295204852e+06  2.7541810144811403e+06  -5.9271730831668284e+06  5.5483270049363580e+06  -7.4041469728298457e+06  6.4001586808181955e+06  -5.4295701588787399e+06  5.0655204651383488e+06  -5.9698442238759231e+06  5.3296544008364594e+06  -4.6461142097956305e+06  2.2333020923067592e+06  -4.1726503662243304e+06  5.3326796066669119e+05  -1.9618978417621788e+06  -9.2654990112206358e+06  4.7447818828610796e+06  1.7962922162335446e-01  0.0000000000000000e+00  2.5414169879530270e+07  -1.3788199109838452e+07  2.0427439000899699e+07  -9.7319006968700867e+06  2.2665524651554085e+07  -1.3332931759914445e+07  2.2976453918115031e+07  -1.2895279491343344e+07  1.8710660663811911e+07  -1.0038254075420683e+07  1.3057030693501996e+07  -6.4490590198656153e+06  8.3233201773572294e+06  -6.3591739663921054e+06  9.3254879381873384e+06  -6.9566560192409754e+06  7.8233037100481233e+06  -5.5185405748975901e+06  5.8174708601549622e+06  -5.9698442078239759e+06  6.0358291155027365e+06  -4.8449044460691046e+06  4.7086712776757507e+06  -4.6528140551375821e+06  7.2984168334141085e+06  -5.4814307831862299e+06  8.0945534544697385e+06  -1.1042012450301759e+07  1.7264780666546974e+07  1.1785467932501752e-01  0.0000000000000000e+00  -2.3531274234623830e+04  -8.9230561429943908e+06  -1.2493849596668212e+07  9.5176865064807690e+05  -1.5274495001135316e+07  3.1417849256566572e+06  -1.4038315005829215e+07  4.3579535005123531e+06  -1.2895434203076189e+07  3.1340849803684554e+06  -7.1353635368084153e+06  1.7452293500635324e+06  -5.4748506643105568e+06  2.8279734441961269e+06  -6.3619629189872183e+06  3.3392102112011183e+06  -5.7574955295247473e+06  4.1346121163807767e+06  -6.0710157235955335e+06  5.3296543737458782e+06  -4.8449044410310052e+06  4.0240144736965420e+06  -4.4093509412300242e+06  4.3340816981472224e+06  -4.4135272602742864e+06  4.4955970319692814e+05  -2.2399331832150496e+06  -8.3128991562769683e+06  7.2086690481064059e+06  7.3576129176925992e-02  4.4116100967089950e-08  3.7913217046811521e+07  -2.3666291517299045e+07  3.3440333615170877e+07  -2.3609787879107434e+07  3.6971885482601218e+07  -2.0105652091210920e+07  2.8267004802171413e+07  -1.4038404569551108e+07  2.2976580503059831e+07  -1.0843290013191393e+07  1.3661414529149868e+07  -6.8226991375679504e+06  1.0543938599957684e+07  -5.7851554033762738e+06  9.7906973771569692e+06  -5.7086941674184361e+06  9.0445351502448395e+06  -5.9201806268139565e+06  7.3836597873017481e+06  -4.6461141621796545e+06  4.7086712705047131e+06  -4.4093509316184027e+06  5.0276672027647439e+06  -4.6480266403438663e+06  4.1133299804581199e+06  -3.2924401617203206e+06  4.3465309019009368e+06  -1.0321061637960378e+07  1.8638738298342858e+07  4.3128976111767345e-02  0.0000000000000000e+00  -7.3763314228648078e+06  -2.2977040284108799e+06  -2.1408577560822431e+07  4.0238355762221580e+06  -2.2404120278201383e+07  7.3475533783884961e+06  -2.0105701105866041e+07  3.1418571229931666e+06  -1.3332954222278792e+07  1.5091707253119601e+06  -5.5825088332674773e+06  -1.1275235866656469e+06  -5.1505439118800694e+06  2.5322761434498877e+05  -6.6964897578107342e+06  1.9549616330406682e+06  -6.6238970771253956e+06  2.0665028029254472e+06  -4.8736641088290634e+06  2.2333020572129311e+06  -4.6528140599755263e+06  4.3340816753599169e+06  -4.6480266345810946e+06  3.3758903816832621e+06  -2.7808625670684250e+06  8.0354431475101598e+05  -5.5991750052473731e+06  -4.9912053294165572e+06  1.0791265576167332e+07  2.3279947122386707e-02  0.0000000000000000e+00  6.7234472404480189e+07  -3.8240038351595931e+07  5.1137915136358872e+07  -3.4672898810243674e+07  4.2833232225934088e+07  -2.2404146732162710e+07  3.6971925023996338e+07  -1.5274509718844796e+07  2.2665487195825707e+07  -8.9524144998950586e+06  1.3730348700603865e+07  -5.2585332718675872e+06  1.3085539705347437e+07  -5.7100911631121002e+06  1.2750662367012158e+07  -4.8433006239805249e+06  1.0120964279003967e+07  -3.4099307289321092e+06  8.1020655933532678e+06  -4.1726502600560845e+06  7.2984168102305345e+06  -4.4135272067480851e+06  4.1133299753439222e+06  -2.7808625616445709e+06  1.8756349841848935e+06  -5.2235209809603170e+06  8.8179393132190488e+05  -5.4394757713817731e+06  1.9836681898087289e+07  1.1226826351459636e-02  0.0000000000000000e+00  -2.1413701012897864e+07  2.3706509664955917e+06  -3.4917218859155327e+07  1.3078425502210945e+07  -3.4672911682262518e+07  4.0238563907282925e+06  -2.36097