<?xml version="1.0"?>
<VTKFile type="UnstructuredGrid"  version="0.1"  >
<UnstructuredGrid>
<Piece  NumberOfPoints="961" NumberOfCells="1800">
<Points>
<DataArray  type="Float64"  NumberOfComponents="3"  format="ascii">-1 -1 0  -0.9333333333333333 -1 0  -0.8666666666666667 -1 0  -0.8 -1 0  -0.7333333333333334 -1 0  -0.6666666666666667 -1 0  -0.6 -1 0  -0.5333333333333333 -1 0  -0.4666666666666667 -1 0  -0.4 -1 0  -0.3333333333333334 -1 0  -0.2666666666666667 -1 0  -0.2 -1 0  -0.1333333333333333 -1 0  -0.06666666666666665 -1 0  0 -1 0  0.06666666666666665 -1 0  0.1333333333333333 -1 0  0.2 -1 0  0.2666666666666666 -1 0  0.3333333333333333 -1 0  0.3999999999999999 -1 0  0.4666666666666666 -1 0  0.5333333333333334 -1 0  0.6000000000000001 -1 0  0.6666666666666667 -1 0  0.7333333333333334 -1 0  0.8 -1 0  0.8666666666666667 -1 0  0.9333333333333333 -1 0  1 -1 0  -1 -0.9333333333333333 0  -0.9333333333333333 -0.9333333333333333 0  -0.8666666666666667 -0.9333333333333333 0  -0.8 -0.9333333333333333 0  -0.7333333333333334 -0.9333333333333333 0  -0.6666666666666667 -0.9333333333333333 0  -0.6 -0.9333333333333333 0  -0.5333333333333333 -0.9333333333333333 0  -0.4666666666666667 -0.9333333333333333 0  -0.4 -0.9333333333333333 0  -0.3333333333333334 -0.9333333333333333 0  -0.2666666666666667 -0.9333333333333333 0  -0.2 -0.9333333333333333 0  -0.1333333333333333 -0.9333333333333333 0  -0.06666666666666665 -0.9333333333333333 0  0 -0.9333333333333333 0  0.06666666666666665 -0.9333333333333333 0  0.1333333333333333 -0.9333333333333333 0  0.2 -0.9333333333333333 0  0.2666666666666666 -0.9333333333333333 0  0.3333333333333333 -0.9333333333333333 0  0.3999999999999999 -0.9333333333333333 0  0.4666666666666666 -0.9333333333333333 0  0.5333333333333334 -0.9333333333333333 0  0.6000000000000001 -0.9333333333333333 0  0.6666666666666667 -0.9333333333333333 0  0.7333333333333334 -0.9333333333333333 0  0.8 -0.9333333333333333 0  0.8666666666666667 -0.9333333333333333 0  0.9333333333333333 -0.9333333333333333 0  1 -0.9333333333333333 0  -1 -0.8666666666666667 0  -0.9333333333333333 -0.8666666666666667 0  -0.8666666666666667 -0.8666666666666667 0  -0.8 -0.8666666666666667 0  -0.7333333333333334 -0.8666666666666667 0  -0.6666666666666667 -0.8666666666666667 0  -0.6 -0.8666666666666667 0  -0.5333333333333333 -0.8666666666666667 0  -0.4666666666666667 -0.8666666666666667 0  -0.4 -0.8666666666666667 0  -0.3333333333333334 -0.8666666666666667 0  -0.2666666666666667 -0.8666666666666667 0  -0.2 -0.8666666666666667 0  -0.1333333333333333 -0.8666666666666667 0  -0.06666666666666665 -0.8666666666666667 0  0 -0.8666666666666667 0  0.06666666666666665 -0.8666666666666667 0  0.1333333333333333 -0.8666666666666667 0  0.2 -0.8666666666666667 0  0.2666666666666666 -0.8666666666666667 0  0.3333333333333333 -0.8666666666666667 0  0.3999999999999999 -0.8666666666666667 0  0.4666666666666666 -0.8666666666666667 0  0.5333333333333334 -0.8666666666666667 0  0.6000000000000001 -0.8666666666666667 0  0.6666666666666667 -0.8666666666666667 0  0.7333333333333334 -0.8666666666666667 0  0.8 -0.8666666666666667 0  0.8666666666666667 -0.8666666666666667 0  0.9333333333333333 -0.8666666666666667 0  1 -0.8666666666666667 0  -1 -0.8 0  -0.9333333333333333 -0.8 0  -0.8666666666666667 -0.8 0  -0.8 -0.8 0  -0.7333333333333334 -0.8 0  -0.6666666666666667 -0.8 0  -0.6 -0.8 0  -0.5333333333333333 -0.8 0  -0.4666666666666667 -0.8 0  -0.4 -0.8 0  -0.3333333333333334 -0.8 0  -0.2666666666666667 -0.8 0  -0.2 -0.8 0  -0.1333333333333333 -0.8 0  -0.06666666666666665 -0.8 0  0 -0.8 0  0.06666666666666665 -0.8 0  0.1333333333333333 -0.8 0  0.2 -0.8 0  0.2666666666666666 -0.8 0  0.3333333333333333 -0.8 0  0.3999999999999999 -0.8 0  0.4666666666666666 -0.8 0  0.5333333333333334 -0.8 0  0.6000000000000001 -0.8 0  0.6666666666666667 -0.8 0  0.7333333333333334 -0.8 0  0.8 -0.8 0  0.8666666666666667 -0.8 0  0.9333333333333333 -0.8 0  1 -0.8 0  -1 -0.7333333333333334 0  -0.9333333333333333 -0.7333333333333334 0  -0.8666666666666667 -0.7333333333333334 0  -0.8 -0.7333333333333334 0  -0.7333333333333334 -0.7333333333333334 0  -0.6666666666666667 -0.7333333333333334 0  -0.6 -0.7333333333333334 0  -0.5333333333333333 -0.7333333333333334 0  -0.4666666666666667 -0.7333333333333334 0  -0.4 -0.7333333333333334 0  -0.3333333333333334 -0.7333333333333334 0  -0.2666666666666667 -0.7333333333333334 0  -0.2 -0.7333333333333334 0  -0.1333333333333333 -0.7333333333333334 0  -0.06666666666666665 -0.7333333333333334 0  0 -0.7333333333333334 0  0.06666666666666665 -0.7333333333333334 0  0.1333333333333333 -0.7333333333333334 0  0.2 -0.7333333333333334 0  0.2666666666666666 -0.7333333333333334 0  0.3333333333333333 -0.7333333333333334 0  0.3999999999999999 -0.7333333333333334 0  0.4666666666666666 -0.7333333333333334 0  0.5333333333333334 -0.7333333333333334 0  0.6000000000000001 -0.7333333333333334 0  0.6666666666666667 -0.7333333333333334 0  0.7333333333333334 -0.7333333333333334 0  0.8 -0.7333333333333334 0  0.8666666666666667 -0.7333333333333334 0  0.9333333333333333 -0.7333333333333334 0  1 -0.7333333333333334 0  -1 -0.6666666666666667 0  -0.9333333333333333 -0.6666666666666667 0  -0.8666666666666667 -0.6666666666666667 0  -0.8 -0.6666666666666667 0  -0.7333333333333334 -0.6666666666666667 0  -0.6666666666666667 -0.6666666666666667 0  -0.6 -0.6666666666666667 0  -0.5333333333333333 -0.6666666666666667 0  -0.4666666666666667 -0.6666666666666667 0  -0.4 -0.6666666666666667 0  -0.3333333333333334 -0.6666666666666667 0  -0.2666666666666667 -0.6666666666666667 0  -0.2 -0.6666666666666667 0  -0.1333333333333333 -0.6666666666666667 0  -0.06666666666666665 -0.6666666666666667 0  0 -0.6666666666666667 0  0.06666666666666665 -0.6666666666666667 0  0.1333333333333333 -0.6666666666666667 0  0.2 -0.6666666666666667 0  0.2666666666666666 -0.6666666666666667 0  0.3333333333333333 -0.6666666666666667 0  0.3999999999999999 -0.6666666666666667 0  0.4666666666666666 -0.6666666666666667 0  0.5333333333333334 -0.6666666666666667 0  0.6000000000000001 -0.6666666666666667 0  0.6666666666666667 -0.6666666666666667 0  0.7333333333333334 -0.6666666666666667 0  0.8 -0.6666666666666667 0  0.8666666666666667 -0.6666666666666667 0  0.9333333333333333 -0.6666666666666667 0  1 -0.6666666666666667 0  -1 -0.6 0  -0.9333333333333333 -0.6 0  -0.8666666666666667 -0.6 0  -0.8 -0.6 0  -0.7333333333333334 -0.6 0  -0.6666666666666667 -0.6 0  -0.6 -0.6 0  -0.5333333333333333 -0.6 0  -0.4666666666666667 -0.6 0  -0.4 -0.6 0  -0.3333333333333334 -0.6 0  -0.2666666666666667 -0.6 0  -0.2 -0.6 0  -0.1333333333333333 -0.6 0  -0.06666666666666665 -0.6 0  0 -0.6 0  0.06666666666666665 -0.6 0  0.1333333333333333 -0.6 0  0.2 -0.6 0  0.2666666666666666 -0.6 0  0.3333333333333333 -0.6 0  0.3999999999999999 -0.6 0  0.4666666666666666 -0.6 0  0.5333333333333334 -0.6 0  0.6000000000000001 -0.6 0  0.6666666666666667 -0.6 0  0.7333333333333334 -0.6 0  0.8 -0.6 0  0.8666666666666667 -0.6 0  0.9333333333333333 -0.6 0  1 -0.6 0  -1 -0.5333333333333333 0  -0.9333333333333333 -0.5333333333333333 0  -0.8666666666666667 -0.5333333333333333 0  -0.8 -0.5333333333333333 0  -0.7333333333333334 -0.5333333333333333 0  -0.6666666666666667 -0.5333333333333333 0  -0.6 -0.5333333333333333 0  -0.5333333333333333 -0.5333333333333333 0  -0.4666666666666667 -0.5333333333333333 0  -0.4 -0.5333333333333333 0  -0.3333333333333334 -0.5333333333333333 0  -0.2666666666666667 -0.5333333333333333 0  -0.2 -0.5333333333333333 0  -0.1333333333333333 -0.5333333333333333 0  -0.06666666666666665 -0.5333333333333333 0  0 -0.5333333333333333 0  0.06666666666666665 -0.5333333333333333 0  0.1333333333333333 -0.5333333333333333 0  0.2 -0.5333333333333333 0  0.2666666666666666 -0.5333333333333333 0  0.3333333333333333 -0.5333333333333333 0  0.3999999999999999 -0.5333333333333333 0  0.4666666666666666 -0.5333333333333333 0  0.5333333333333334 -0.5333333333333333 0  0.6000000000000001 -0.5333333333333333 0  0.6666666666666667 -0.5333333333333333 0  0.7333333333333334 -0.5333333333333333 0  0.8 -0.5333333333333333 0  0.8666666666666667 -0.5333333333333333 0  0.9333333333333333 -0.5333333333333333 0  1 -0.5333333333333333 0  -1 -0.4666666666666667 0  -0.9333333333333333 -0.4666666666666667 0  -0.8666666666666667 -0.4666666666666667 0  -0.8 -0.4666666666666667 0  -0.7333333333333334 -0.4666666666666667 0  -0.6666666666666667 -0.4666666666666667 0  -0.6 -0.4666666666666667 0  -0.5333333333333333 -0.4666666666666667 0  -0.4666666666666667 -0.4666666666666667 0  -0.4 -0.4666666666666667 0  -0.3333333333333334 -0.4666666666666667 0  -0.2666666666666667 -0.4666666666666667 0  -0.2 -0.4666666666666667 0  -0.1333333333333333 -0.4666666666666667 0  -0.06666666666666665 -0.4666666666666667 0  0 -0.4666666666666667 0  0.06666666666666665 -0.4666666666666667 0  0.1333333333333333 -0.4666666666666667 0  0.2 -0.4666666666666667 0  0.2666666666666666 -0.4666666666666667 0  0.3333333333333333 -0.4666666666666667 0  0.3999999999999999 -0.4666666666666667 0  0.4666666666666666 -0.4666666666666667 0  0.5333333333333334 -0.4666666666666667 0  0.6000000000000001 -0.4666666666666667 0  0.6666666666666667 -0.4666666666666667 0  0.7333333333333334 -0.4666666666666667 0  0.8 -0.4666666666666667 0  0.8666666666666667 -0.4666666666666667 0  0.9333333333333333 -0.4666666666666667 0  1 -0.4666666666666667 0  -1 -0.4 0  -0.9333333333333333 -0.4 0  -0.8666666666666667 -0.4 0  -0.8 -0.4 0  -0.7333333333333334 -0.4 0  -0.6666666666666667 -0.4 0  -0.6 -0.4 0  -0.5333333333333333 -0.4 0  -0.4666666666666667 -0.4 0  -0.4 -0.4 0  -0.3333333333333334 -0.4 0  -0.2666666666666667 -0.4 0  -0.2 -0.4 0  -0.1333333333333333 -0.4 0  -0.06666666666666665 -0.4 0  0 -0.4 0  0.06666666666666665 -0.4 0  0.1333333333333333 -0.4 0  0.2 -0.4 0  0.2666666666666666 -0.4 0  0.3333333333333333 -0.4 0  0.3999999999999999 -0.4 0  0.4666666666666666 -0.4 0  0.5333333333333334 -0.4 0  0.6000000000000001 -0.4 0  0.6666666666666667 -0.4 0  0.7333333333333334 -0.4 0 
[...]
<PointData  Scalars="f_24"> 
<DataArray  type="Float64"  Name="f_24"  format="ascii">0.0000000000000000e+00  0.0000000000000000e+00  0.0000000000000000e+00  0.0000000000000000e+00  0.0000000000000000e+00  0.0000000000000000e+00  0.0000000000000000e+00  0.0000000000000000e+00  0.0000000000000000e+00  0.0000000000000000e+00  0.0000000000000000e+00  0.0000000000000000e+00  0.0000000000000000e+00  0.0000000000000000e+00  0.0000000000000000e+00  0.0000000000000000e+00  0.0000000000000000e+00  0.0000000000000000e+00  0.0000000000000000e+00  0.0000000000000000e+00  0.0000000000000000e+00  0.0000000000000000e+00  0.0000000000000000e+00  0.0000000000000000e+00  0.0000000000000000e+00  1.6239284691239873e-07  0.0000000000000000e+00  -2.5698710387554577e-07  0.0000000000000000e+00  0.0000000000000000e+00  1.0202050425948380e+01  0.0000000000000000e+00  9.3365787408663221e+06  1.0220489785768310e+07  1.4872579157189813e+07  1.0751841153149648e+07  1.4711641300844962e+07  8.4537802051657420e+06  1.4021028421079559e+07  6.0522490044743121e+06  1.3137770121169360e+07  4.3801152771869982e+06  1.2827261994536612e+07  2.7037841854462284e+06  1.3361601975267746e+07  1.4484083863427758e+06  1.3963746476196427e+07  1.0090309880756233e+06  1.4832588207167892e+07  9.6272190884930897e+05  1.6235571084834380e+07  1.5080215384543589e+06  1.8846456576347448e+07  9.7085152886021463e+05  2.7525411268385962e+07  -4.3015135312172892e+06  4.7933795560218699e+07  -1.4338861191011278e+07  7.9351519253798336e+07  -8.8161212827764675e+06  1.7248259222823045e+08  8.9082918855743163e+00  0.0000000000000000e+00  1.0220489769679150e+07  1.1271532895255836e+07  4.6182939606879018e+06  2.1436622699867939e+06  -2.8698355514807636e+06  -2.6195723529800293e+06  -6.4557171609451501e+06  -5.1593944024198391e+06  -7.1864443966108989e+06  -6.0442749472660972e+06  -7.9162649838320697e+06  -5.7716931592153935e+06  -8.2160350385628399e+06  -6.1942083237215877e+06  -7.7672013773528244e+06  -6.7966416647869134e+06  -7.8626167223767396e+06  -7.0811811751408819e+06  -7.9787852003581459e+06  -7.6358226441674540e+06  -9.1275509973569680e+06  -5.6062455567281554e+06  -1.5835991666485557e+07  -7.5777800684469671e+05  -2.5900302733622085e+07  2.5820971986234370e+06  -2.2404301994071670e+07  -1.3794888084519776e+07  -8.8161277047581375e+06  7.7416685267325960e+00  0.0000000000000000e+00  1.4872579150308767e+07  4.6182939635337489e+06  1.7735658023000646e+06  -3.4231411052639377e+06  1.2321344479394103e+06  -3.5633408001900450e+06  3.1731824233558150e+06  -1.6478583167836515e+06  5.4401640598620679e+06  -1.7309370276062679e+06  7.9103655116999764e+06  -2.0317479945781531e+06  8.8116916543581635e+06  -1.8303573228933550e+06  9.6538245725557134e+06  -2.7165553145206617e+06  1.1147279176999301e+07  -3.5726172346446682e+06  1.1593828992610570e+07  -4.3488658670841828e+06  1.4097338288218524e+07  -8.8339391908725146e+06  2.3575792027983040e+07  -1.4658603775904767e+07  3.6455009261167563e+07  -2.3683754757568583e+07  4.3597841321187459e+07  -2.2404301552419387e+07  7.9351520501232371e+07  6.6935650406024791e+00  0.0000000000000000e+00  1.0751841103223363e+07  2.1436622856097706e+06  -3.4231411099175448e+06  5.9950383111902664e+05  -3.5329911732230880e+06  3.8162843441216863e+05  -2.7116075927912067e+06  -2.2019019108656136e+05  -4.4474372866319874e+06  -2.5263518567548817e+05  -5.2908069834795967e+06  -1.6048939842134267e+06  -5.0322619171938300e+06  -2.3003717271872661e+06  -5.7075568753126925e+06  -2.0997338022233788e+06  -5.7704468568362920e+06  -3.1877952711431286e+06  -4.4946460538434191e+06  -3.2464353109210297e+06  -7.4128841573867993e+06  1.4849323002448745e+05  -1.6940297246229928e+07  2.6532893785383622e+06  -2.4179577492486622e+07  9.6569567583256606e+06  -2.3683761513927702e+07  2.5821017584987972e+06  -1.4338866567611745e+07  5.7556693770965275e+00  -1.4234251455561412e-08  1.4711641286772233e+07  -2.8698355218041446e+06  1.2321344531323209e+06  -3.5329911761606671e+06  1.0487118851964744e+06  -2.4551927568828929e+06  2.2814678225379437e+06  -3.7062919659555624e+06  4.5443166530185742e+06  -3.4484788169667325e+06  5.2102028786930041e+06  -2.8219724288039478e+06  6.6970423413561499e+06  -3.7801408543053651e+06  8.5647681477602143e+06  -4.3875267021142980e+06  8.7771669591107015e+06  -4.1160926995648639e+06  9.1615646388188638e+06  -6.7950205963614164e+06  1.5328488254505774e+07  -1.1313541682189468e+07  2.5338116127846014e+07  -1.6197833627978435e+07  2.9788411179996036e+07  -2.4179585654125243e+07  3.6455016948919564e+07  -2.5900303565738164e+07  4.7933795133853287e+07  4.9199703057235640e+00  0.0000000000000000e+00  8.4537801325649843e+06  -2.6195723085867367e+06  -3.5633408416904900e+06  3.8162844363973261e+05  -2.4551927606885387e+06  1.7555760402830332e+06  -3.8467781482715500e+06  2.5300202437427794e+06  -3.6893697991190585e+06  1.2123830424464678e+06  -3.7174773843970289e+06  1.1896282372136551e+06  -4.8799669715641141e+06  1.1517489857372972e+06  -4.9116168797112573e+06  -4.2771911843850896e+04  -3.8476962588559780e+06  -1.0523296777745634e+06  -4.2149801341361562e+06  7.0602027401016990e+05  -9.7702946563799791e+06  1.7010026222168384e+06  -1.4676277761711063e+07  4.5524132244794816e+06  -1.6197853182513734e+07  2.6533044883483709e+06  -1.4658609530686395e+07  -7.5777865927520639e+05  -4.3015153611789392e+06  4.1787598544684572e+00  -6.2382127090859422e-09  1.4021028413628554e+07  -6.4557171171126859e+06  3.1731824192374200e+06  -2.7116075761652980e+06  2.2814678261543801e+06  -3.8467781523547284e+06  3.0425015009575537e+06  -3.4665955423973771e+06  3.0175744570363252e+06  -3.4770541715605059e+06  5.0058773352982663e+06  -4.2926543656377066e+06  6.2227688118612757e+06  -4.1124208204475651e+06  6.7606992903919592e+06  -4.1659899335850612e+06  7.2740348492285935e+06  -4.9264197342360942e+06  9.4062147704773229e+06  -7.8269210698362812e+06  1.5825761044479497e+07  -1.0216903744371915e+07  1.9346411060416088e+07  -1.4676311729569523e+07  2.5338144124374200e+07  -1.6940302882763118e+07  2.3575787043709818e+07  -1.5835986271376517e+07  2.7525410398798607e+07  3.5246320904294075e+00  0.0000000000000000e+00  6.0522489084611638e+06  -5.1593943397549614e+06  -1.6478583851129224e+06  -2.2019016643999296e+05  -3.7062920033331714e+06  2.5300202596541652e+06  -3.4665955491044619e+06  2.5575438392739082e+06  -3.5835430815530149e+06  3.6061466805636468e+06  -4.3541076872211602e+06  2.8274312498295014e+06  -4.0967881298745628e+06  2.2904953372494872e+06  -4.5111038916710941e+06  1.9314140777726448e+06  -3.9000106985418149e+06  1.1503695675419271e+06  -5.0999936804648256e+06  2.0661812871963356e+06  -9.2305222245827876e+06  2.7890084733988550e+06  -1.0216967051539082e+07  1.7010535255669139e+06  -1.1313552936283780e+07  1.4848124758006772e+05  -8.8339300577667058e+06  -5.6062465833344944e+06  9.7084781586493482e+05  2.9504833636802030e+00  -4.3252498104183564e-09  1.3137770121831635e+07  -7.1864443326650560e+06  5.4401640454800520e+06  -4.4474372629201757e+06  4.5443166696411194e+06  -3.6893697958905306e+06  3.0175744621258262e+06  -3.5835430851168456e+06  4.1149703500098530e+06  -4.2622157827485371e+06  4.0320990927465241e+06  -3.9020017072466640e+06  5.4634108525788691e+06  -4.8964443048447687e+06  6.5232706437774701e+06  -4.4778908924671188e+06  5.8143785758787971e+06  -4.5559329043868547e+06  9.1051629350917041e+06  -7.1173818825087389e+06  1.3002099807918238e+07  -9.2306304469094779e+06  1.5825849932770969e+07  -9.7703102664417047e+06  1.5328462243835438e+07  -7.4128611558035146e+06  1.4097334467348991e+07  -9.1275546879101042e+06  1.8846459009581335e+07  2.4495122864438268e+00  0.0000000000000000e+00  4.3801151620107489e+06  -6.0442748720803661e+06  -1.7309371389636134e+06  -2.5263512270262107e+05  -3.4484788907298478e+06  1.2123830667511183e+06  -3.4770542048071101e+06  3.6061466995106940e+06  -4.2622157939732578e+06  3.5103453134016399e+06  -3.8316243104267456e+06  4.4742251241675066e+06  -5.2018237940513277e+06  3.8841228584064418e+06  -4.1644427426409479e+06  1.9242481961151131e+06  -2.9035234500604523e+06  2.3170040389909158e+06  -6.6672303645242909e+06  3.6662545817503086e+06  -7.1175618537374297e+06  2.0663302420777411e+06  -7.8269458798838165e+06  7.0596995702488523e+05  -6.7949778963392759e+06  -3.2464424227517489e+06  -4.3488775519578550e+06  -7.6358146372278761e+06  1.5080190959192666e+06  2.0152198372243726e+00  -3.9598199541539497e-09  1.2827262006428646e+07  -7.9162649149398329e+06  7.9103655126688462e+06  -5.2908069525673036e+06  5.2102028864912149e+06  -3.7174773661336419e+06  5.0058773595671449e+06  -4.3541076981122820e+06  4.0320991054118993e+06  -3.8316243148128642e+06  5.0301736699033771e+06  -5.4633274830583241e+06  4.8452613925985023e+06  -3.8789131471056310e+06  4.5836508337751701e+06  -3.6091630887701758e+06  5.3180297285183966e+06  -5.7466367579539604e+06  9.5633294222705290e+06  -6.6675099210133087e+06  9.1053994972377047e+06  -5.1000278325509466e+06  9.4061233326543514e+06  -4.2149008489111103e+06  9.1615514907555338e+06  -4.4946672978605591e+06  1.1593845221430015e+07  -7.9787861092828773e+06  1.6235568340887880e+07  1.6414091525432331e+00  0.0000000000000000e+00  2.7037840359842707e+06  -5.7716930541302254e+06  -2.0317481546405735e+06  -1.6048939032293612e+06  -2.8219725318428348e+06  1.1896282953670067e+06  -4.2926544524862235e+06  2.8274312886056020e+06  -3.9020017451387499e+06  4.4742251485336497e+06  -5.4633275032256590e+06  4.3028917052661972e+06  -3.3901438463196219e+06  3.8056594409300494e+06  -4.5378269129812242e+06  3.2547240714482660e+06  -4.2519223192797229e+06  3.9417514989741873e+06  -5.7470437225654488e+06  2.3173567538489820e+06  -4.5559790816699602e+06  1.1502150228495488e+06  -4.9262863661360741e+06  -1.0523505555116243e+06  -4.1161348690993534e+06  -3.1877631161778681e+06  -3.5726208696684521e+06  -7.0811886788131539e+06  9.6272414380009566e+05  1.3221857352029101e+00  6.1689975615374988e-06  1.3361602012770420e+07  -8.2160349671340287e+06  8.8116916581978668e+06  -5.0322618626372982e+06  6.6970423590781456e+06  -4.8799669667444555e+06  6.2227688540515956e+06  -4.0967881312894151e+06  5.4634108907595444e+06  -5.2018238274759073e+06  4.8452614249235494e+06  -3.3901438536078315e+06  4.3386571948386291e+06  -5.6949762718360666e+06  4.9122323724301541e+06  -2.9494060529655330e+06  4.1825518938311674e+06  -4.2524672548418678e+06  5.3185177862448050e+06  -2.9035796104955175e+06  5.8141360469755419e+06  -3.8997988700167034e+06  7.2740044340615431e+06  -3.8477702443570942e+06  8.7772246754972059e+06  -5.7704509089890812e+06  1.1147261572245467e+07  -7.8626067053200109e+06  1.4832588488641556e+07  1.0519573501551045e+00  0.0000000000000000e+00  1.4484081864803205e+06  -6.1942081961513218e+06  -1.8303575224762312e+06  -2.3003716171624656e+06  -3.7801410269436459e+06  1.1517490942046342e+06  -4.1124209531941502e+06  2.2904954115021257e+06  -4.8964444182702499e+06  3.8841229305088203e+06  -3.8789132020528410e+06  3.8056594695586246e+06  -5.6949763086778922e+06  4.8921228280450385e+06  -1.7887375136099420e+06  5.5047655269814713e+05  -2.9500730827903892e+06  3.2553447964868429e+06  -3.6092274955068920e+06  1.9238989433566548e+06  -4.4775820408839881e+06  1.9313748609183482e+06  -4.1661143126009325e+06  -4.2674727503658309e+04  -4.3875336278893957e+06  -2.0997673492268571e+06  -2.7165364409990595e+06  -6.7966398353262227e+06  1.0090250528938641e+06  8.2543404532710252e-01  7.4976577064942699e-09  1.3963746539253686e+07  -7.7672012835681643e+06  9.6538245870235246e+06  -5.7075568292284403e+06  8.5647682075846251e+06  -4.9116168819853617e+06  6.7606993528850563e+06  -4.5111039217822170e+06  6.5232707387152603e+06  -4.1644427903056974e+06  4.5836509040757008e+06  -4.5378269937309232e+06  4.9122324783690553e+06  -1.7887375582890380e+06  -1.8271239937506322e+05  -1.7894767179701759e+06  4.9129519738419810e+06  -4.5378954017348355e+06  4.5831934655863671e+06  -4.1640283147448706e+06  6.5232252038424155e+06  -4.5112942297637668e+06  6.7608495661224863e+06  -4.9116239777384168e+06  8.5647085723838098e+06  -5.7075208219070379e+06  9.6538280407784581e+06  -7.7672142378448015e+06  1.3963750881274510e+07  6.3762815162177378e-01  0.0000000000000000e+00  1.0090307237207590e+06  -6.7966415031949384e+06  -2.7165556007182440e+06  -2.0997336195482323e+06  -4.3875269637489850e+06  -4.2771754089213617e+04  -4.1659901514347540e+06  1.9314142421784559e+06  -4.4778911055996455e+06  1.9242483365178462e+06  -3.6091632709491099e+06  3.2547242355390098e+06  -2.9494061821642951e+06  5.5047655267338629e+05  -1.7894766732898552e+06  4.8928791744711613e+06  -5.6950464401192255e+06  3.8051196381937545e+06  -3.8784075410934119e+06  3.8840752534723291e+06  -4.8967109155902173e+06  2.2907083745400398e+06  -4.1124269541076208e+06  1.1516526818064619e+06  -3.7800823302328805e+06  -2.3003643005575514e+06  -1.8303843080532053e+06  -6.1941974284999138e+06  1.4484096626319110e+06  4.8385428291757160e-01  -7.7033590955826834e-09  1.4832588306292929e+07  -7.8626166204723874e+06  1.1147279246708527e+07  -5.7704468355897535e+06  8.7771670624242350e+06  -3.8476962832013266e+06  7.2740349903214974e+06  -3.9000107937797126e+06  5.8143787344410177e+06  -2.9035235377588067e+06  5.3180298754484430e+06  -4.2519223947441112e+06  4.1825518937552311e+06  -2.9500729535024585e+06  4.9129518679166203e+06  -5.6950464032689435e+06  4.3380863178800177e+06  -3.3895843590682358e+06  4.8452143265736466e+06  -5.2021590134583674e+06  5.4636851812437885e+06  -4.0967889676972548e+06  6.2226263087691469e+06  -4.8798782554806862e+06  6.6970556152837733e+06  -5.0323071563347243e+06  8.8117107555365860e+06  -8.2160285563113792e+06  1.3361594899563823e+07  3.5972932800532903e-01  0.0000000000000000e+00  9.6272152606534900e+05  -7.0811809256872516e+06  -3.5726176624464039e+06  -3.1877950081762392e+06  -4.1160930652433364e+06  -1.0523294356900617e+06  -4.9264200741125457e+06  1.1503697897230440e+06  -4.5559331492364705e+06  2.3170041620731531e+06  -5.7466369047304466e+06  3.9417514989321171e+06  -4.2524671792496676e+06  3.2553446322958693e+06  -4.5378953210455151e+06  3.8051196095485063e+06  -3.3895843517908207e+06  4.3028452764073042e+06  -5.4637044311639387e+06  4.4745449321833430e+06  -3.9019961147416793e+06  2.8272412683421322e+06  -4.2925343317211010e+06  1.1896506564284679e+06  -2.8220436553156781e+06  -1.6048632766430776e+06  -2.0317360591614738e+06  -5.7717099845373658e+06  2.7037874438488423e+06  2.6117249090427858e-01  0.0000000000000000e+00  1.6235571253564853e+07  -7.9787850884429067e+06  1.1593829110205209e+07  -4.4946460175654814e+06  9.1615647761465441e+06  -4.2149801620966308e+06  9.4062149229444265e+06  -5.0999936915530311e+06  9.1051629975949172e+06  -6.6672303144891057e+06  9.5633294221718907e+06  -5.7470435757524902e+06  5.3185176392560406e+06  -3.6092273131964370e+06  4.5831933953912361e+06  -3.8784074860912375e+06  4.8452142942727823e+06  -5.4637044109895946e+06  5.0305103032021923e+06  -3.8316136297148494e+06  4.0318724163448755e+06  -4.3539600417977385e+06  5.0059103312955406e+06  -3.7175767221858893e+06  5.2102463034152687e+06  -5.2907853990227571e+06  7.9103349231857155e+06  -7.9162567326935381e+06  1.2827266647157665e+07  1.8440521023001269e-01  0.0000000000000000e+00  1.5080209684715641e+06  -7.6358223023508275e+06  -4.3488664230586272e+06  -3.2464350182098215e+06  -6.7950210282012569e+06  7.0602049972507753e+05  -7.8269213674678169e+06  2.0661813693119723e+06  -7.1173820201514922e+06  3.6662545813628333e+06  -6.6675099706109976e+06  2.3173566307469090e+06  -2.9035795228592148e+06  1.9238988027539114e+06  -4.1640282672671452e+06  3.8840751812515254e+06  -5.2021589800971365e+06  4.4745449077898357e+06  -3.8316136253340989e+06  3.5101047532310104e+06  -4.2620523919273773e+06  3.6061887684330884e+06  -3.4771796064672554e+06  1.2124388272266940e+06  -3.4484471810943005e+06  -2.5268132324853109e+05  -1.7309254602531996e+06  -6.0442630228654742e+06  4.3801064440038567e+06  1.2595123982652329e-01  0.0000000000000000e+00  1.8846456786654588e+07  -9.1275507614768334e+06  1.4097338382223217e+07  -7.4128840333164902e+06  1.5328488378355291e+07  -9.7702945853988007e+06  1.5825761109243872e+07  -9.2305220957211889e+06  1.3002099807726007e+07  -7.1175617153808540e+06  9.1053994341012314e+06  -4.5559788367806580e+06  5.8141358886515396e+06  -4.4775818273917977e+06  6.5232251092250794e+06  -4.8967108019231195e+06  5.4636851432044441e+06  -3.9019960767735355e+06  4.0318724037099169e+06  -4.2620523806999484e+06  4.1150160241823089e+06  -3.5836838620488262e+06  3.0176389789527762e+06  -3.6893277656939263e+06  4.5442545574759273e+06  -4.4474211532055205e+06  5.4401840708209099e+06  -7.1864615629229872e+06  1.3137772152596541e+07  8.2636604693767865e-02  0.0000000000000000e+00  9.7085073844587558e+05  -5.6062451543988539e+06  -8.8339398796995264e+06  1.4849351465639586e+05  -1.1313542149019245e+07  1.7010027606660528e+06  -1.0216903996616101e+07  2.7890084726778157e+06  -9.2306305754863303e+06  2.0663301596631976e+06  -5.1000278207408246e+06  1.1502148004749482e+06  -3.8997987752894899e+06  1.9313746958731776e+06  -4.5112942002248857e+06  2.2907082998409532e+06  -4.0967889665819420e+06  2.8272412293946967e+06  -4.3539600309950784e+06  3.6061887494551037e+06  -3.5836838584875767e+06  2.5576115471657710e+06  -3.4665473983046198e+06  2.5299462815091130e+06  -3.7062732023646166e+06  -2.2016123847241735e+05  -1.6478856614809360e+06  -5.1593910616379781e+06  6.0522550003959453e+06  5.1589627832943949e-02  0.0000000000000000e+00  2.7525411420667186e+07  -1.5835991212166704e+07  2.3575792153128825e+07  -1.6940297058266453e+07  2.5338116265819460e+07  -1.4676277561978033e+07  1.9346411058833737e+07  -1.0216966796290237e+07  1.5825849867242252e+07  -7.8269455825619791e+06  9.4061231795609053e+06  -4.9262860257229162e+06  7.2740042939770306e+06  -4.1661140936052906e+06  6.7608495046736840e+06  -4.1124268205233631e+06  6.2226262671755152e+06  -4.2925342444948917e+06  5.0059103072373308e+06  -3.4771795731182494e+06  3.0176389738958790e+06  -3.4665473915945152e+06  3.0424230626959000e+06  -3.8467576072620591e+06  2.2815034346221797e+06  -2.7116424394076201e+06  3.1731855196578591e+06  -6.4557030730061829e+06  1.4021020998413417e+07  3.0240892682348194e-02  0.0000000000000000e+00  -4.3015147033541165e+06  -7.5777741457234579e+05  -1.4658604699866794e+07  2.6532896228148169e+06  -1.6197834124174997e+07  4.5524132253479427e+06  -1.4676311929793999e+07  1.7010533835139871e+06  -9.7703103354079369e+06  7.0596973230751266e+05  -4.2149008206671430e+06  -1.0523507988753174e+06  -3.8477702219675081e+06  -4.2674887386226663e+04  -4.9116239773971559e+06  1.1516525717502972e+06  -4.8798782614748338e+06  1.1896505974772153e+06  -3.7175767409348316e+06  1.2124388026611817e+06  -3.6893277690415848e+06  2.5299462655622736e+06  -3.8467576031821570e+06  1.7556142139583505e+06  -2.4552324218078633e+06  3.8163145395358559e+05  -3.5633210932944803e+06  -2.6195851803562301e+06  8.4537793548839446e+06  1.6323280681517394e-02  0.0000000000000000e+00  4.7933795565026820e+07  -2.5900302023494206e+07  3.6455009484765559e+07  -2.4179577083349995e+07  2.9788411171100758e+07  -1.6197852672966089e+07  2.5338143991128121e+07  -1.1313552468665643e+07  1.5328462115350120e+07  -6.7949774662495153e+06  9.1615513541294299e+06  -4.1161345004055738e+06  8.7772245762099084e+06  -4.3875333620714713e+06  8.5647085163435657e+06  -3.7800821544760228e+06  6.6970555999345444e+06  -2.8220435506044445e+06  5.2102462967024921e+06  -3.4484471066944180e+06  4.5442545411823979e+06  -3.7062731648451332e+06  2.2815034310455401e+06  -2.4552324179981085e+06  1.0487147705470289e+06  -3.5329675596838086e+06  1.2321173989925098e+06  -2.8698365891243923e+06  1.4711647526713485e+07  7.8719524891576933e-03  0.0000000000000000e+00  -1.4338863203313677e+07  2.5820980047316803e+06  -2.3683755754708719e+07  9.6569567459636312e+06  -2.4179586108995166e+07  2.6533042172472468e+06  -1.6