<?xml version="1.0"?>
<VTKFile type="UnstructuredGrid"  version="0.1"  >
<UnstructuredGrid>
<Piece  NumberOfPoints="961" NumberOfCells="1800">
<Points>
<DataArray  type="Float64"  NumberOfComponents="3"  format="ascii">-1 -1 0  -0.9333333333333333 -1 0  -0.8666666666666667 -1 0  -0.8 -1 0  -0.7333333333333334 -1 0  -0.6666666666666667 -1 0  -0.6 -1 0  -0.5333333333333333 -1 0  -0.4666666666666667 -1 0  -0.4 -1 0  -0.3333333333333334 -1 0  -0.2666666666666667 -1 0  -0.2 -1 0  -0.1333333333333333 -1 0  -0.06666666666666665 -1 0  0 -1 0  0.06666666666666665 -1 0  0.1333333333333333 -1 0  0.2 -1 0  0.2666666666666666 -1 0  0.3333333333333333 -1 0  0.3999999999999999 -1 0  0.4666666666666666 -1 0  0.5333333333333334 -1 0  0.6000000000000001 -1 0  0.6666666666666667 -1 0  0.7333333333333334 -1 0  0.8 -1 0  0.8666666666666667 -1 0  0.9333333333333333 -1 0  1 -1 0  -1 -0.9333333333333333 0  -0.9333333333333333 -0.9333333333333333 0  -0.8666666666666667 -0.9333333333333333 0  -0.8 -0.9333333333333333 0  -0.7333333333333334 -0.9333333333333333 0  -0.6666666666666667 -0.9333333333333333 0  -0.6 -0.9333333333333333 0  -0.5333333333333333 -0.9333333333333333 0  -0.4666666666666667 -0.9333333333333333 0  -0.4 -0.9333333333333333 0  -0.3333333333333334 -0.9333333333333333 0  -0.2666666666666667 -0.9333333333333333 0  -0.2 -0.9333333333333333 0  -0.1333333333333333 -0.9333333333333333 0  -0.06666666666666665 -0.9333333333333333 0  0 -0.9333333333333333 0  0.06666666666666665 -0.9333333333333333 0  0.1333333333333333 -0.9333333333333333 0  0.2 -0.9333333333333333 0  0.2666666666666666 -0.9333333333333333 0  0.3333333333333333 -0.9333333333333333 0  0.3999999999999999 -0.9333333333333333 0  0.4666666666666666 -0.9333333333333333 0  0.5333333333333334 -0.9333333333333333 0  0.6000000000000001 -0.9333333333333333 0  0.6666666666666667 -0.9333333333333333 0  0.7333333333333334 -0.9333333333333333 0  0.8 -0.9333333333333333 0  0.8666666666666667 -0.9333333333333333 0  0.9333333333333333 -0.9333333333333333 0  1 -0.9333333333333333 0  -1 -0.8666666666666667 0  -0.9333333333333333 -0.8666666666666667 0  -0.8666666666666667 -0.8666666666666667 0  -0.8 -0.8666666666666667 0  -0.7333333333333334 -0.8666666666666667 0  -0.6666666666666667 -0.8666666666666667 0  -0.6 -0.8666666666666667 0  -0.5333333333333333 -0.8666666666666667 0  -0.4666666666666667 -0.8666666666666667 0  -0.4 -0.8666666666666667 0  -0.3333333333333334 -0.8666666666666667 0  -0.2666666666666667 -0.8666666666666667 0  -0.2 -0.8666666666666667 0  -0.1333333333333333 -0.8666666666666667 0  -0.06666666666666665 -0.8666666666666667 0  0 -0.8666666666666667 0  0.06666666666666665 -0.8666666666666667 0  0.1333333333333333 -0.8666666666666667 0  0.2 -0.8666666666666667 0  0.2666666666666666 -0.8666666666666667 0  0.3333333333333333 -0.8666666666666667 0  0.3999999999999999 -0.8666666666666667 0  0.4666666666666666 -0.8666666666666667 0  0.5333333333333334 -0.8666666666666667 0  0.6000000000000001 -0.8666666666666667 0  0.6666666666666667 -0.8666666666666667 0  0.7333333333333334 -0.8666666666666667 0  0.8 -0.8666666666666667 0  0.8666666666666667 -0.8666666666666667 0  0.9333333333333333 -0.8666666666666667 0  1 -0.8666666666666667 0  -1 -0.8 0  -0.9333333333333333 -0.8 0  -0.8666666666666667 -0.8 0  -0.8 -0.8 0  -0.7333333333333334 -0.8 0  -0.6666666666666667 -0.8 0  -0.6 -0.8 0  -0.5333333333333333 -0.8 0  -0.4666666666666667 -0.8 0  -0.4 -0.8 0  -0.3333333333333334 -0.8 0  -0.2666666666666667 -0.8 0  -0.2 -0.8 0  -0.1333333333333333 -0.8 0  -0.06666666666666665 -0.8 0  0 -0.8 0  0.06666666666666665 -0.8 0  0.1333333333333333 -0.8 0  0.2 -0.8 0  0.2666666666666666 -0.8 0  0.3333333333333333 -0.8 0  0.3999999999999999 -0.8 0  0.4666666666666666 -0.8 0  0.5333333333333334 -0.8 0  0.6000000000000001 -0.8 0  0.6666666666666667 -0.8 0  0.7333333333333334 -0.8 0  0.8 -0.8 0  0.8666666666666667 -0.8 0  0.9333333333333333 -0.8 0  1 -0.8 0  -1 -0.7333333333333334 0  -0.9333333333333333 -0.7333333333333334 0  -0.8666666666666667 -0.7333333333333334 0  -0.8 -0.7333333333333334 0  -0.7333333333333334 -0.7333333333333334 0  -0.6666666666666667 -0.7333333333333334 0  -0.6 -0.7333333333333334 0  -0.5333333333333333 -0.7333333333333334 0  -0.4666666666666667 -0.7333333333333334 0  -0.4 -0.7333333333333334 0  -0.3333333333333334 -0.7333333333333334 0  -0.2666666666666667 -0.7333333333333334 0  -0.2 -0.7333333333333334 0  -0.1333333333333333 -0.7333333333333334 0  -0.06666666666666665 -0.7333333333333334 0  0 -0.7333333333333334 0  0.06666666666666665 -0.7333333333333334 0  0.1333333333333333 -0.7333333333333334 0  0.2 -0.7333333333333334 0  0.2666666666666666 -0.7333333333333334 0  0.3333333333333333 -0.7333333333333334 0  0.3999999999999999 -0.7333333333333334 0  0.4666666666666666 -0.7333333333333334 0  0.5333333333333334 -0.7333333333333334 0  0.6000000000000001 -0.7333333333333334 0  0.6666666666666667 -0.7333333333333334 0  0.7333333333333334 -0.7333333333333334 0  0.8 -0.7333333333333334 0  0.8666666666666667 -0.7333333333333334 0  0.9333333333333333 -0.7333333333333334 0  1 -0.7333333333333334 0  -1 -0.6666666666666667 0  -0.9333333333333333 -0.6666666666666667 0  -0.8666666666666667 -0.6666666666666667 0  -0.8 -0.6666666666666667 0  -0.7333333333333334 -0.6666666666666667 0  -0.6666666666666667 -0.6666666666666667 0  -0.6 -0.6666666666666667 0  -0.5333333333333333 -0.6666666666666667 0  -0.4666666666666667 -0.6666666666666667 0  -0.4 -0.6666666666666667 0  -0.3333333333333334 -0.6666666666666667 0  -0.2666666666666667 -0.6666666666666667 0  -0.2 -0.6666666666666667 0  -0.1333333333333333 -0.6666666666666667 0  -0.06666666666666665 -0.6666666666666667 0  0 -0.6666666666666667 0  0.06666666666666665 -0.6666666666666667 0  0.1333333333333333 -0.6666666666666667 0  0.2 -0.6666666666666667 0  0.2666666666666666 -0.6666666666666667 0  0.3333333333333333 -0.6666666666666667 0  0.3999999999999999 -0.6666666666666667 0  0.4666666666666666 -0.6666666666666667 0  0.5333333333333334 -0.6666666666666667 0  0.6000000000000001 -0.6666666666666667 0  0.6666666666666667 -0.6666666666666667 0  0.7333333333333334 -0.6666666666666667 0  0.8 -0.6666666666666667 0  0.8666666666666667 -0.6666666666666667 0  0.9333333333333333 -0.6666666666666667 0  1 -0.6666666666666667 0  -1 -0.6 0  -0.9333333333333333 -0.6 0  -0.8666666666666667 -0.6 0  -0.8 -0.6 0  -0.7333333333333334 -0.6 0  -0.6666666666666667 -0.6 0  -0.6 -0.6 0  -0.5333333333333333 -0.6 0  -0.4666666666666667 -0.6 0  -0.4 -0.6 0  -0.3333333333333334 -0.6 0  -0.2666666666666667 -0.6 0  -0.2 -0.6 0  -0.1333333333333333 -0.6 0  -0.06666666666666665 -0.6 0  0 -0.6 0  0.06666666666666665 -0.6 0  0.1333333333333333 -0.6 0  0.2 -0.6 0  0.2666666666666666 -0.6 0  0.3333333333333333 -0.6 0  0.3999999999999999 -0.6 0  0.4666666666666666 -0.6 0  0.5333333333333334 -0.6 0  0.6000000000000001 -0.6 0  0.6666666666666667 -0.6 0  0.7333333333333334 -0.6 0  0.8 -0.6 0  0.8666666666666667 -0.6 0  0.9333333333333333 -0.6 0  1 -0.6 0  -1 -0.5333333333333333 0  -0.9333333333333333 -0.5333333333333333 0  -0.8666666666666667 -0.5333333333333333 0  -0.8 -0.5333333333333333 0  -0.7333333333333334 -0.5333333333333333 0  -0.6666666666666667 -0.5333333333333333 0  -0.6 -0.5333333333333333 0  -0.5333333333333333 -0.5333333333333333 0  -0.4666666666666667 -0.5333333333333333 0  -0.4 -0.5333333333333333 0  -0.3333333333333334 -0.5333333333333333 0  -0.2666666666666667 -0.5333333333333333 0  -0.2 -0.5333333333333333 0  -0.1333333333333333 -0.5333333333333333 0  -0.06666666666666665 -0.5333333333333333 0  0 -0.5333333333333333 0  0.06666666666666665 -0.5333333333333333 0  0.1333333333333333 -0.5333333333333333 0  0.2 -0.5333333333333333 0  0.2666666666666666 -0.5333333333333333 0  0.3333333333333333 -0.5333333333333333 0  0.3999999999999999 -0.5333333333333333 0  0.4666666666666666 -0.5333333333333333 0  0.5333333333333334 -0.5333333333333333 0  0.6000000000000001 -0.5333333333333333 0  0.6666666666666667 -0.5333333333333333 0  0.7333333333333334 -0.5333333333333333 0  0.8 -0.5333333333333333 0  0.8666666666666667 -0.5333333333333333 0  0.9333333333333333 -0.5333333333333333 0  1 -0.5333333333333333 0  -1 -0.4666666666666667 0  -0.9333333333333333 -0.4666666666666667 0  -0.8666666666666667 -0.4666666666666667 0  -0.8 -0.4666666666666667 0  -0.7333333333333334 -0.4666666666666667 0  -0.6666666666666667 -0.4666666666666667 0  -0.6 -0.4666666666666667 0  -0.5333333333333333 -0.4666666666666667 0  -0.4666666666666667 -0.4666666666666667 0  -0.4 -0.4666666666666667 0  -0.3333333333333334 -0.4666666666666667 0  -0.2666666666666667 -0.4666666666666667 0  -0.2 -0.4666666666666667 0  -0.1333333333333333 -0.4666666666666667 0  -0.06666666666666665 -0.4666666666666667 0  0 -0.4666666666666667 0  0.06666666666666665 -0.4666666666666667 0  0.1333333333333333 -0.4666666666666667 0  0.2 -0.4666666666666667 0  0.2666666666666666 -0.4666666666666667 0  0.3333333333333333 -0.4666666666666667 0  0.3999999999999999 -0.4666666666666667 0  0.4666666666666666 -0.4666666666666667 0  0.5333333333333334 -0.4666666666666667 0  0.6000000000000001 -0.4666666666666667 0  0.6666666666666667 -0.4666666666666667 0  0.7333333333333334 -0.4666666666666667 0  0.8 -0.4666666666666667 0  0.8666666666666667 -0.4666666666666667 0  0.9333333333333333 -0.4666666666666667 0  1 -0.4666666666666667 0  -1 -0.4 0  -0.9333333333333333 -0.4 0  -0.8666666666666667 -0.4 0  -0.8 -0.4 0  -0.7333333333333334 -0.4 0  -0.6666666666666667 -0.4 0  -0.6 -0.4 0  -0.5333333333333333 -0.4 0  -0.4666666666666667 -0.4 0  -0.4 -0.4 0  -0.3333333333333334 -0.4 0  -0.2666666666666667 -0.4 0  -0.2 -0.4 0  -0.1333333333333333 -0.4 0  -0.06666666666666665 -0.4 0  0 -0.4 0  0.06666666666666665 -0.4 0  0.1333333333333333 -0.4 0  0.2 -0.4 0  0.2666666666666666 -0.4 0  0.3333333333333333 -0.4 0  0.3999999999999999 -0.4 0  0.4666666666666666 -0.4 0  0.5333333333333334 -0.4 0  0.6000000000000001 -0.4 0  0.6666666666666667 -0.4 0  0.7333333333333334 -0.4 0 
[...]
<PointData  Scalars="f_24"> 
<DataArray  type="Float64"  Name="f_24"  format="ascii">0.0000000000000000e+00  0.0000000000000000e+00  0.0000000000000000e+00  0.0000000000000000e+00  0.0000000000000000e+00  0.0000000000000000e+00  0.0000000000000000e+00  0.0000000000000000e+00  0.0000000000000000e+00  0.0000000000000000e+00  0.0000000000000000e+00  0.0000000000000000e+00  0.0000000000000000e+00  0.0000000000000000e+00  0.0000000000000000e+00  0.0000000000000000e+00  0.0000000000000000e+00  0.0000000000000000e+00  0.0000000000000000e+00  0.0000000000000000e+00  0.0000000000000000e+00  0.0000000000000000e+00  0.0000000000000000e+00  0.0000000000000000e+00  0.0000000000000000e+00  -1.3131693772948816e-08  0.0000000000000000e+00  -1.2237481136930751e-08  0.0000000000000000e+00  0.0000000000000000e+00  1.0100538328110824e+01  0.0000000000000000e+00  9.2440644029929023e+06  1.0119543529458852e+07  1.4725674964811482e+07  1.0646236326302070e+07  1.4566894992583029e+07  8.3715244824682698e+06  1.3883565393083068e+07  5.9942323238724563e+06  1.3009376682355812e+07  4.3389608932972113e+06  1.2702132578069946e+07  2.6794397870680308e+06  1.3231247821179397e+07  1.4366126602370571e+06  1.3827428000588138e+07  1.0016044212624609e+06  1.4687593401240578e+07  9.5569450047640561e+05  1.6076521917365883e+07  1.4954374839804959e+06  1.8661256272218291e+07  9.6339285169638053e+05  2.7253581747302879e+07  -4.2568436496125152e+06  4.7458502768622860e+07  -1.4194786795530450e+07  7.8563072046295419e+07  -8.7276202680797279e+06  1.7076677711026815e+08  8.8196529003019162e+00  0.0000000000000000e+00  1.0119543513530323e+07  1.1160780747722020e+07  4.5742570831062580e+06  2.1246057561655920e+06  -2.8388016267410233e+06  -2.5909576045757430e+06  -6.3889702130538374e+06  -5.1056630266086934e+06  -7.1127106332898764e+06  -5.9820949934082562e+06  -7.8356466122683994e+06  -5.7125807084684707e+06  -8.1327333312293189e+06  -6.1311097383276680e+06  -7.6884862237444008e+06  -6.7275635725767529e+06  -7.7828608809307097e+06  -7.0090831795518585e+06  -7.8976020688260682e+06  -7.5578767262765300e+06  -9.0345824457543176e+06  -5.5481530054759281e+06  -1.5675994227761522e+07  -7.4776418326890399e+05  -2.5640171407682929e+07  2.5586448724444448e+06  -2.2179463804934926e+07  -1.3656204317582147e+07  -8.7276266261620373e+06  7.6646376361323734e+00  -3.4006360271035674e-09  1.4725674958000395e+07  4.5742570859241839e+06  1.7583140809781223e+06  -3.3865838824089151e+06  1.2221354850301878e+06  -3.5261166575072650e+06  3.1427165622304142e+06  -1.6310937563327192e+06  5.3856550373853138e+06  -1.7147882633399514e+06  7.8299759773740619e+06  -2.0137016167756128e+06  8.7214862708187848e+06  -1.8148922423729470e+06  9.5549447268526070e+06  -2.6922818009728538e+06  1.1033814748461884e+07  -3.5392711076763319e+06  1.1476742375849672e+07  -4.3067331304049026e+06  1.3956606330987990e+07  -8.7457770788363647e+06  2.3342197166212428e+07  -1.4511111238495087e+07  3.6094414739959583e+07  -2.3445701637323793e+07  4.3166377440301947e+07  -2.2179463367677275e+07  7.8563073281316534e+07  6.6269632450347267e+00  0.0000000000000000e+00  1.0646236276873838e+07  2.1246057716339692e+06  -3.3865838870157995e+06  5.9559446403595852e+05  -3.4967349863077374e+06  3.7766751029934682e+05  -2.6861724433781803e+06  -2.2088763871077675e+05  -4.4072744625943257e+06  -2.5521612490144750e+05  -5.2440497853424484e+06  -1.5953967713718470e+06  -4.9890588725656942e+06  -2.2845768566528703e+06  -5.6579318430602448e+06  -2.0859279186720187e+06  -5.7198854580951417e+06  -3.1625336761300312e+06  -4.4558007457705205e+06  -3.2192296374182776e+06  -7.3432371998139797e+06  1.4407661329796017e+05  -1.6773368458500003e+07  2.6266079270406980e+06  -2.3938024906793185e+07  9.5627879919939730e+06  -2.3445708326456506e+07  2.5586493869474418e+06  -1.4194792118633986e+07  5.6983995099095957e+00  -1.6034596680145938e-08  1.4566894978652477e+07  -2.8388015973586510e+06  1.2221354901725929e+06  -3.4967349892160026e+06  1.0376240018346997e+06  -2.4333857795005715e+06  2.2542726611686056e+06  -3.6754896256865622e+06  4.4918097299890332e+06  -3.4223095637659635e+06  5.1496669487392567e+06  -2.8029098055989547e+06  6.6212215465917066e+06  -3.7517846075050845e+06  8.4702788769523557e+06  -4.3531045938349469e+06  8.6806913190488070e+06  -4.0840937965380782e+06  9.0617822295346521e+06  -6.7354832223379733e+06  1.5168734590612238e+07  -1.1207018984813336e+07  2.5081490819242738e+07  -1.6039350002218084e+07  2.9491249205412157e+07  -2.3938032987222269e+07  3.6094422351216465e+07  -2.5640172231520355e+07  4.7458502346498519e+07  4.8710157832324583e+00  0.0000000000000000e+00  8.3715244105916768e+06  -2.5909575606228490e+06  -3.5261166985940272e+06  3.7766751943514956e+05  -2.4333857832682454e+06  1.7330864396211968e+06  -3.8154707614997122e+06  2.4965388101516445e+06  -3.6617189894327028e+06  1.1909711659626432e+06  -3.6898267440387192e+06  1.1686154206134193e+06  -4.8403907751789894e+06  1.1314618301862730e+06  -4.8715104355660109e+06  -5.1150428141919008e+04  -3.8183444639658397e+06  -1.0509644105206279e+06  -4.1822862710381579e+06  6.8975694393034000e+05  -9.6820223862256687e+06  1.6758711501039932e+06  -1.4537154526601821e+07  4.5020970785164097e+06  -1.6039369362182638e+07  2.6266228865052732e+06  -1.4511116936016539e+07  -7.4776482920853212e+05  -4.2568454613675838e+06  4.1371804991941943e+00  7.4858552509031300e-09  1.3883565385707891e+07  -6.3889701696561472e+06  3.1427165581539418e+06  -2.6861724269176195e+06  2.2542726647489830e+06  -3.8154707655424355e+06  3.0036511575542917e+06  -3.4413893028001436e+06  2.9782622614835245e+06  -3.4513065759866051e+06  4.9478438958146973e+06  -4.2575402787005585e+06  6.1537620729592955e+06  -4.0782643825079878e+06  6.6867826925770156e+06  -4.1312868210469782e+06  7.1945975730871465e+06  -4.8849493750566449e+06  9.3044721174791548e+06  -7.7577908664086442e+06  1.5659129617462702e+07  -1.0124397927319206e+07  1.9145449184578635e+07  -1.4537188156474166e+07  2.5081518537200768e+07  -1.6773374038948812e+07  2.3342192231532812e+07  -1.5675988886335840e+07  2.7253580886366442e+07  3.4895614151566177e+00  0.0000000000000000e+00  5.9942322288168920e+06  -5.1056629645667588e+06  -1.6310938239815016e+06  -2.2088761430952133e+05  -3.6754896626924612e+06  2.4965388259044783e+06  -3.4413893094405094e+06  2.5229058259508815e+06  -3.5562950819777171e+06  3.5629264249869348e+06  -4.3170551348440256e+06  2.7939248652589358e+06  -4.0607459761395790e+06  2.2633731171733611e+06  -4.4704216370846182e+06  1.9078651600170727e+06  -3.8659218777358797e+06  1.1335663140200845e+06  -5.0554815234987745e+06  2.0383520659751019e+06  -9.1469859221247248e+06  2.7521953507942897e+06  -1.0124460604569435e+07  1.6759215469565969e+06  -1.1207030126926299e+07  1.4406475008051153e+05  -8.7457680366071481e+06  -5.5481540218689172e+06  9.6338917564430460e+05  2.9211255636912714e+00  1.5138374336464247e-08  1.3009376683013001e+07  -7.1127105699796733e+06  5.3856550231473278e+06  -4.4072744391186852e+06  4.4918097464458765e+06  -3.6617189862365453e+06  2.9782622665222897e+06  -3.5562950855074511e+06  4.0670242283880399e+06  -4.2253414638305986e+06  3.9877025905234977e+06  -3.8665096033951477e+06  5.4063443202563114e+06  -4.8500779446488377e+06  6.4561187071895935e+06  -4.4356972105630180e+06  5.7538066894460237e+06  -4.5139467050487986e+06  9.0102870583900474e+06  -7.0520729458040036e+06  1.2865787372551637e+07  -9.1470930676212739e+06  1.5659217621301118e+07  -9.6820378409640547e+06  1.5168708838752601e+07  -7.3432144271001713e+06  1.3956602548136782e+07  -9.0345860995873250e+06  1.8661258681240115e+07  2.4251392369901006e+00  0.0000000000000000e+00  4.3389607792687323e+06  -5.9820949189697504e+06  -1.7147883735888836e+06  -2.5521606255546171e+05  -3.4223096367954738e+06  1.1909711900251331e+06  -3.4513066089024278e+06  3.5629264437453975e+06  -4.2253414749422865e+06  3.4715018757945332e+06  -3.7961827831217768e+06  4.4278519981394615e+06  -5.1514164020296140e+06  3.8443849952782425e+06  -4.1240213268208359e+06  1.9039998774112354e+06  -2.8760051459781718e+06  2.2920705969896554e+06  -6.6035977345070438e+06  3.6258529811210898e+06  -7.0522511262891321e+06  2.0384995387306937e+06  -7.7578154295919007e+06  6.8970712760741392e+05  -6.7354409471881613e+06  -3.2192366784843802e+06  -4.3067446990127210e+06  -7.5578687990085231e+06  1.4954350657475293e+06  1.9951680648120154e+00  -7.9196399083078995e-09  1.2702132589845158e+07  -7.8356465440616505e+06  7.8299759783337321e+06  -5.2440497547380785e+06  5.1496669564597802e+06  -3.6898267259572009e+06  4.9478439198421380e+06  -4.3170551456270581e+06  3.9877026030628760e+06  -3.7961827874657875e+06  4.9785226138464622e+06  -5.4099154486998394e+06  4.7964576258720485e+06  -3.8407444087008270e+06  4.5376614979332332e+06  -3.5736868214198649e+06  5.2645024035425531e+06  -5.6904326214575954e+06  9.4665417061620727e+06  -6.6038745093627181e+06  9.0105212667033486e+06  -5.0555153357659020e+06  9.3043815894778743e+06  -4.1822077747140075e+06  9.0617692122975849e+06  -4.4558217784060575e+06  1.1476758443189558e+07  -7.8976029687080905e+06  1.6076519200721450e+07  1.6250768585897908e+00  0.0000000000000000e+00  2.6794396390941418e+06  -5.7125806044284813e+06  -2.0137017752449634e+06  -1.5953966911939150e+06  -2.8029099076127084e+06  1.1686154781879159e+06  -4.2575403646853203e+06  2.7939249036490461e+06  -3.8665096409099731e+06  4.4278520222631264e+06  -5.4099154686648902e+06  4.2596148814377142e+06  -3.3566423555456204e+06  3.7676566516534877e+06  -4.4927866704330165e+06  3.2221969421145129e+06  -4.2098610108328378e+06  3.9020484492525505e+06  -5.6908355367036704e+06  2.2924198022750104e+06  -4.5139924228608711e+06  1.1334133070724595e+06  -4.8848173339916663e+06  -1.0509850805214464e+06  -4.0841355464781001e+06  -3.1625018411121396e+06  -3.5392747065309803e+06  -7.0090906085622739e+06  9.5569671318814461e+05  1.3090297673231628e+00  3.2414659167612732e-06  1.3231247858310012e+07  -8.1327332605114840e+06  8.7214862746206224e+06  -4.9890588185523544e+06  6.6212215641374607e+06  -4.8403907704077689e+06  6.1537621147298086e+06  -4.0607459775402239e+06  5.4063443580570687e+06  -5.1514164351217458e+06  4.7964576578752315e+06  -3.3566423627583897e+06  4.2954048851532619e+06  -5.6383420313061466e+06  4.8633352355730236e+06  -2.9200935625539585e+06  4.1408460607317141e+06  -4.2104005241943561e+06  5.2649856050126702e+06  -2.8760607476070644e+06  5.7535665737450169e+06  -3.8657121569393654e+06  7.1945674605555795e+06  -3.8184177132981061e+06  8.6807484611472711e+06  -5.7198894699281976e+06  1.1033797318878431e+07  -7.7828509635462118e+06  1.4687593679912910e+07  1.0414901996322767e+00  0.0000000000000000e+00  1.4366124623636485e+06  -6.1311096120267780e+06  -1.8148924399701231e+06  -2.2845767477222844e+06  -3.7517847784265322e+06  1.1314619375784295e+06  -4.0782645139358975e+06  2.2633731906865947e+06  -4.8500780569471586e+06  3.8443850666617765e+06  -3.8407444631026257e+06  3.7676566799983098e+06  -5.6383420677847965e+06  4.8434438414443042e+06  -1.7709348257805768e+06  5.4499511579244793e+05  -2.9207539553202060e+06  3.2228114908346771e+06  -3.5737505872989814e+06  1.9036540997750019e+06  -4.4353914321051138e+06  1.9078263333762132e+06  -4.1314099624710111e+06  -5.1054210803067239e+04  -4.3531114506974155e+06  -2.0859611318778303e+06  -2.6922631152459341e+06  -6.7275617613200983e+06  1.0015985451366694e+06  8.1722083934700118e-01  0.0000000000000000e+00  1.3827428063016722e+07  -7.6884861308930386e+06  9.5549447411758304e+06  -5.6579317974349577e+06  8.4702789361821786e+06  -4.8715104378169151e+06  6.6867827544450155e+06  -4.4704216668953178e+06  6.4561188011823678e+06  -4.1240213740112158e+06  4.5376615675340658e+06  -4.4927867503745267e+06  4.8633353404563293e+06  -1.7709348700103501e+06  -1.8088515608817604e+05  -1.7716666749335558e+06  4.8640476768291192e+06  -4.4928544777113479e+06  4.5372086806339994e+06  -4.1236110225509168e+06  6.4560737193887746e+06  -4.4706100812811069e+06  6.6869314730385756e+06  -4.8715174629663276e+06  8.4702198943609446e+06  -5.6578961483923774e+06  9.5549481605660301e+06  -7.6884989562726710e+06  1.3827432361835126e+07  6.3128364550692651e-01  0.0000000000000000e+00  1.0016041595377756e+06  -6.7275634125925386e+06  -2.6922820843231925e+06  -2.0859277378143840e+06  -4.3531048528666869e+06  -5.1150271954953438e+04  -4.1312870367290853e+06  1.9078653227868648e+06  -4.4356974215747938e+06  1.9040000164151124e+06  -3.5736870017868392e+06  3.2221971045714701e+06  -2.9200936904699556e+06  5.4499511576392257e+05  -1.7716666306929979e+06  4.8441926620965227e+06  -5.6384115014028596e+06  3.7671222200468234e+06  -3.8402438335517952e+06  3.8443378640195383e+06  -4.8503419025735622e+06  2.2635840347062005e+06  -4.0782704551375299e+06  1.1313664844951627e+06  -3.7517266657576058e+06  -2.2845695039200410e+06  -1.8149189590261853e+06  -6.1310989515152397e+06  1.4366139238271585e+06  4.7903985236136476e-01  0.0000000000000000e+00  1.4687593499377839e+07  -7.7828607800416937e+06  1.1033814817477178e+07  -5.7198854370603869e+06  8.6806914213342965e+06  -3.8183444880662919e+06  7.1945977127737990e+06  -3.8659219720289400e+06  5.7538068464332884e+06  -2.8760052328051734e+06  5.2645025490117213e+06  -4.2098610855476949e+06  4.1408460606644046e+06  -2.9207538273210707e+06  4.8640475719571961e+06  -5.6384114649226591e+06  4.2948396885159425e+06  -3.3560884352859394e+06  4.7964110281619374e+06  -5.1517482859480744e+06  5.4066159193049110e+06  -4.0607468056256180e+06  6.1536209877968365e+06  -4.8403029418355981e+06  6.6212346884414572e+06  -4.9891036615701979e+06  8.7215051819377895e+06  -8.1327269134772392e+06  1.3231240815880841e+07  3.5614996479754463e-01  0.0000000000000000e+00  9.5569412149949407e+05  -7.0090829325803937e+06  -3.5392715312213879e+06  -3.1625334157797536e+06  -4.0840941585760154e+06  -1.0509641708428245e+06  -4.8849497115525864e+06  1.1335665339916635e+06  -4.5139469474625066e+06  2.2920707188480431e+06  -5.6904327667725924e+06  3.9020484492121926e+06  -4.2104004493568167e+06  3.2228113282766384e+06  -4.4928543978212560e+06  3.7671221916856323e+06  -3.3560884280780316e+06  4.2595689145552758e+06  -5.4102886461059628e+06  4.4281686240120819e+06  -3.8665040665369667e+06  2.7937367741182684e+06  -4.2574214391422579e+06  1.1686376167527982e+06  -2.8029803233959936e+06  -1.5953663693481840e+06  -2.0136898001180787e+06  -5.7125973663754323e+06  2.6794430130500169e+06  2.5857378119963714e-01  -8.2298557378547960e-09  1.6076522084416326e+07  -7.8976019580257311e+06  1.1476742492273051e+07  -4.4558007098538019e+06  9.0617823654970396e+06  -4.1822862987189223e+06  9.3044722684295867e+06  -5.0554815344783114e+06  9.0102871202675980e+06  -6.6035976849659244e+06  9.4665417060625944e+06  -5.6908353913508207e+06  5.2649854594885083e+06  -3.5737504068009011e+06  4.5372086111381846e+06  -3.8402437790981219e+06  4.7964109961835491e+06  -5.4102886261349954e+06  4.9788558975863736e+06  -3.7961722086872193e+06  3.9874781695890804e+06  -4.3169089585174937e+06  4.9478765634966623e+06  -3.6899250934002940e+06  5.1497099413777515e+06  -5.2440284156547990e+06  7.8299456932212431e+06  -7.8356384432295272e+06  1.2702137184398230e+07  1.8257034773070449e-01  0.0000000000000000e+00  1.4954369196666335e+06  -7.5578763878620993e+06  -4.3067336808476057e+06  -3.2192293476184383e+06  -6.7354836498814812e+06  6.8975716740366397e+05  -7.7577911610786021e+06  2.0383521472749095e+06  -7.0520730820774874e+06  3.6258529807383381e+06  -6.6038745584660489e+06  2.2924196804007897e+06  -2.8760606608452476e+06  1.9036539605718264e+06  -4.1236109755464029e+06  3.8443377925188295e+06  -5.1517482529181428e+06  4.4281685998601327e+06  -3.7961722043475644e+06  3.4712637092369981e+06  -4.2251796987741385e+06  3.5629680940749827e+06  -3.4514307627944183e+06  1.1910263956743728e+06  -3.4222782426759303e+06  -2.5526180339860293e+05  -1.7147768110832740e+06  -5.9820831876562331e+06  4.3389521480072178e+06  1.2469800405075097e-01  0.0000000000000000e+00  1.8661256480431061e+07  -9.0345822122219950e+06  1.3956606424056372e+07  -7.3432370769780576e+06  1.5168734713227643e+07  -9.6820223159469422e+06  1.5659129681581372e+07  -9.1469857945428304e+06  1.2865787372358218e+07  -7.0522509893115982e+06  9.0105212041941285e+06  -4.5139921804061076e+06  5.7535664169978602e+06  -4.4353912207392966e+06  6.4560736257131835e+06  -4.8503417900369186e+06  5.4066158816439928e+06  -3.8665040289460937e+06  3.9874781570798927e+06  -4.2251796876583220e+06  4.0670694480951279e+06  -3.5564344616854768e+06  2.9783261413962482e+06  -3.6616773742477885e+06  4.4917482523067631e+06  -4.4072584896985451e+06  5.3856748492333330e+06  -7.1127276287935711e+06  1.3009378693571970e+07  8.1814375245463561e-02  0.0000000000000000e+00  9.6339206914473884e+05  -5.5481526071514217e+06  -8.7457777608098593e+06  1.4407689509731100e+05  -1.1207019446996048e+07  1.6758712871737457e+06  -1.0124398177047990e+07  2.7521953500803229e+06  -9.1470931949163880e+06  2.0384994571380732e+06  -5.0555153240754828e+06  1.1334130869105740e+06  -3.8657120631560697e+06  1.9078261699746370e+06  -4.4706100520352451e+06  2.2635839607511600e+06  -4.0607468045221479e+06  2.7937367355581596e+06  -4.3169089478227794e+06  3.5629680752857826e+06  -3.5564344581597610e+06  2.5229728601377690e+06  -3.4413416377486205e+06  2.4964655838537477e+06  -3.6754710487965764e+06  -2.2085897417977030e+05  -1.6311208289449136e+06  -5.1056597190671051e+06  5.9942382601356907e+06  5.1076302459187602e-02  5.5145126208862437e-09  2.7253581898063418e+07  -1.5675993777959257e+07  2.3342197290105361e+07  -1.6773368272398347e+07  2.5081490955832824e+07  -1.4537154328848273e+07  1.9145449183005624e+07  -1.0124460351855081e+07  1.5659217556422733e+07  -7.7578151352287177e+06  9.3043814379077703e+06  -4.8848169969661441e+06  7.1945673218630413e+06  -4.1314097456558938e+06  6.6869314121990679e+06  -4.0782703228849596e+06  6.1536209466168564e+06  -4.2574213527830159e+06  4.9478765396779748e+06  -3.4514307297772840e+06  2.9783261363897459e+06  -3.4413416311051035e+06  3.0035734997663228e+06  -3.8154504248776878e+06  2.2543079189069434e+06  -2.6862069432652737e+06  3.1427196277254317e+06  -6.3889562652908945e+06  1.3883558044275684e+07  2.9939990772585270e-02  0.0000000000000000e+00  -4.2568448100807704e+06  -7.4776359690064378e+05  -1.4511112153251205e+07  2.6266081688706414e+06  -1.6039350493461441e+07  4.5020970793637615e+06  -1.4537188354698755e+07  1.6759214063156820e+06  -9.6820379092413522e+06  6.8970690512998914e+05  -4.1822077467500814e+06  -1.0509853214611372e+06  -3.8184176911297799e+06  -5.1054369091518005e+04  -4.8715174626278272e+06  1.1313663755379000e+06  -4.8403029477691753e+06  1.1686375583886958e+06  -3.6899251119625778e+06  1.1910263713535380e+06  -3.6616773775618402e+06  2.4964655680658305e+06  -3.8154504208383788e+06  1.7331242334619574e+06  -2.4334250497518680e+06  3.7767049979634542e+05  -3.5260971466972819e+06  -2.5909703043158357e+06  8.3715236406486984e+06  1.6160861324977304e-02  0.0000000000000000e+00  4.7458502773359552e+07  -2.5640170704599179e+07  3.6094414961306058e+07  -2.3938024501701307e+07  2.9491249196582381e+07  -1.6039368857688952e+07  2.5081518405269865e+07  -1.1207029663960546e+07  1.5168708711543290e+07  -6.7354405213788776e+06  9.0617690770304725e+06  -4.0841351814519577e+06  8.6807483628478274e+06  -4.3531111875251364e+06  8.4702198388787042e+06  -3.7517264917498161e+06  6.6212346732452083e+06  -2.8029802197256987e+06  5.1497099347321708e+06  -3.4222781690159659e+06  4.4917482361757876e+06  -3.6754710116502792e+06  2.2543079153659707e+06  -2.4334250459806188e+06  1.0376268584762138e+06  -3.4967116077283523e+06  1.2221186057250146e+06  -2.8388026540591270e+06  1.4566901156506088e+07  7.7936252531719263e-03  0.0000000000000000e+00  -1.4194788787771687e+07  2.5586456704957201e+06  -2.3445702624503151e+07  9.5627879797195755e+06  -2.3938033437539604e+07  2.6266226180868605e+06  -1.6