<?xml version="1.0"?>
<VTKFile type="UnstructuredGrid"  version="0.1"  >
<UnstructuredGrid>
<Piece  NumberOfPoints="961" NumberOfCells="1800">
<Points>
<DataArray  type="Float64"  NumberOfComponents="3"  format="ascii">-1 -1 0  -0.9333333333333333 -1 0  -0.8666666666666667 -1 0  -0.8 -1 0  -0.7333333333333334 -1 0  -0.6666666666666667 -1 0  -0.6 -1 0  -0.5333333333333333 -1 0  -0.4666666666666667 -1 0  -0.4 -1 0  -0.3333333333333334 -1 0  -0.2666666666666667 -1 0  -0.2 -1 0  -0.1333333333333333 -1 0  -0.06666666666666665 -1 0  0 -1 0  0.06666666666666665 -1 0  0.1333333333333333 -1 0  0.2 -1 0  0.2666666666666666 -1 0  0.3333333333333333 -1 0  0.3999999999999999 -1 0  0.4666666666666666 -1 0  0.5333333333333334 -1 0  0.6000000000000001 -1 0  0.6666666666666667 -1 0  0.7333333333333334 -1 0  0.8 -1 0  0.8666666666666667 -1 0  0.9333333333333333 -1 0  1 -1 0  -1 -0.9333333333333333 0  -0.9333333333333333 -0.9333333333333333 0  -0.8666666666666667 -0.9333333333333333 0  -0.8 -0.9333333333333333 0  -0.7333333333333334 -0.9333333333333333 0  -0.6666666666666667 -0.9333333333333333 0  -0.6 -0.9333333333333333 0  -0.5333333333333333 -0.9333333333333333 0  -0.4666666666666667 -0.9333333333333333 0  -0.4 -0.9333333333333333 0  -0.3333333333333334 -0.9333333333333333 0  -0.2666666666666667 -0.9333333333333333 0  -0.2 -0.9333333333333333 0  -0.1333333333333333 -0.9333333333333333 0  -0.06666666666666665 -0.9333333333333333 0  0 -0.9333333333333333 0  0.06666666666666665 -0.9333333333333333 0  0.1333333333333333 -0.9333333333333333 0  0.2 -0.9333333333333333 0  0.2666666666666666 -0.9333333333333333 0  0.3333333333333333 -0.9333333333333333 0  0.3999999999999999 -0.9333333333333333 0  0.4666666666666666 -0.9333333333333333 0  0.5333333333333334 -0.9333333333333333 0  0.6000000000000001 -0.9333333333333333 0  0.6666666666666667 -0.9333333333333333 0  0.7333333333333334 -0.9333333333333333 0  0.8 -0.9333333333333333 0  0.8666666666666667 -0.9333333333333333 0  0.9333333333333333 -0.9333333333333333 0  1 -0.9333333333333333 0  -1 -0.8666666666666667 0  -0.9333333333333333 -0.8666666666666667 0  -0.8666666666666667 -0.8666666666666667 0  -0.8 -0.8666666666666667 0  -0.7333333333333334 -0.8666666666666667 0  -0.6666666666666667 -0.8666666666666667 0  -0.6 -0.8666666666666667 0  -0.5333333333333333 -0.8666666666666667 0  -0.4666666666666667 -0.8666666666666667 0  -0.4 -0.8666666666666667 0  -0.3333333333333334 -0.8666666666666667 0  -0.2666666666666667 -0.8666666666666667 0  -0.2 -0.8666666666666667 0  -0.1333333333333333 -0.8666666666666667 0  -0.06666666666666665 -0.8666666666666667 0  0 -0.8666666666666667 0  0.06666666666666665 -0.8666666666666667 0  0.1333333333333333 -0.8666666666666667 0  0.2 -0.8666666666666667 0  0.2666666666666666 -0.8666666666666667 0  0.3333333333333333 -0.8666666666666667 0  0.3999999999999999 -0.8666666666666667 0  0.4666666666666666 -0.8666666666666667 0  0.5333333333333334 -0.8666666666666667 0  0.6000000000000001 -0.8666666666666667 0  0.6666666666666667 -0.8666666666666667 0  0.7333333333333334 -0.8666666666666667 0  0.8 -0.8666666666666667 0  0.8666666666666667 -0.8666666666666667 0  0.9333333333333333 -0.8666666666666667 0  1 -0.8666666666666667 0  -1 -0.8 0  -0.9333333333333333 -0.8 0  -0.8666666666666667 -0.8 0  -0.8 -0.8 0  -0.7333333333333334 -0.8 0  -0.6666666666666667 -0.8 0  -0.6 -0.8 0  -0.5333333333333333 -0.8 0  -0.4666666666666667 -0.8 0  -0.4 -0.8 0  -0.3333333333333334 -0.8 0  -0.2666666666666667 -0.8 0  -0.2 -0.8 0  -0.1333333333333333 -0.8 0  -0.06666666666666665 -0.8 0  0 -0.8 0  0.06666666666666665 -0.8 0  0.1333333333333333 -0.8 0  0.2 -0.8 0  0.2666666666666666 -0.8 0  0.3333333333333333 -0.8 0  0.3999999999999999 -0.8 0  0.4666666666666666 -0.8 0  0.5333333333333334 -0.8 0  0.6000000000000001 -0.8 0  0.6666666666666667 -0.8 0  0.7333333333333334 -0.8 0  0.8 -0.8 0  0.8666666666666667 -0.8 0  0.9333333333333333 -0.8 0  1 -0.8 0  -1 -0.7333333333333334 0  -0.9333333333333333 -0.7333333333333334 0  -0.8666666666666667 -0.7333333333333334 0  -0.8 -0.7333333333333334 0  -0.7333333333333334 -0.7333333333333334 0  -0.6666666666666667 -0.7333333333333334 0  -0.6 -0.7333333333333334 0  -0.5333333333333333 -0.7333333333333334 0  -0.4666666666666667 -0.7333333333333334 0  -0.4 -0.7333333333333334 0  -0.3333333333333334 -0.7333333333333334 0  -0.2666666666666667 -0.7333333333333334 0  -0.2 -0.7333333333333334 0  -0.1333333333333333 -0.7333333333333334 0  -0.06666666666666665 -0.7333333333333334 0  0 -0.7333333333333334 0  0.06666666666666665 -0.7333333333333334 0  0.1333333333333333 -0.7333333333333334 0  0.2 -0.7333333333333334 0  0.2666666666666666 -0.7333333333333334 0  0.3333333333333333 -0.7333333333333334 0  0.3999999999999999 -0.7333333333333334 0  0.4666666666666666 -0.7333333333333334 0  0.5333333333333334 -0.7333333333333334 0  0.6000000000000001 -0.7333333333333334 0  0.6666666666666667 -0.7333333333333334 0  0.7333333333333334 -0.7333333333333334 0  0.8 -0.7333333333333334 0  0.8666666666666667 -0.7333333333333334 0  0.9333333333333333 -0.7333333333333334 0  1 -0.7333333333333334 0  -1 -0.6666666666666667 0  -0.9333333333333333 -0.6666666666666667 0  -0.8666666666666667 -0.6666666666666667 0  -0.8 -0.6666666666666667 0  -0.7333333333333334 -0.6666666666666667 0  -0.6666666666666667 -0.6666666666666667 0  -0.6 -0.6666666666666667 0  -0.5333333333333333 -0.6666666666666667 0  -0.4666666666666667 -0.6666666666666667 0  -0.4 -0.6666666666666667 0  -0.3333333333333334 -0.6666666666666667 0  -0.2666666666666667 -0.6666666666666667 0  -0.2 -0.6666666666666667 0  -0.1333333333333333 -0.6666666666666667 0  -0.06666666666666665 -0.6666666666666667 0  0 -0.6666666666666667 0  0.06666666666666665 -0.6666666666666667 0  0.1333333333333333 -0.6666666666666667 0  0.2 -0.6666666666666667 0  0.2666666666666666 -0.6666666666666667 0  0.3333333333333333 -0.6666666666666667 0  0.3999999999999999 -0.6666666666666667 0  0.4666666666666666 -0.6666666666666667 0  0.5333333333333334 -0.6666666666666667 0  0.6000000000000001 -0.6666666666666667 0  0.6666666666666667 -0.6666666666666667 0  0.7333333333333334 -0.6666666666666667 0  0.8 -0.6666666666666667 0  0.8666666666666667 -0.6666666666666667 0  0.9333333333333333 -0.6666666666666667 0  1 -0.6666666666666667 0  -1 -0.6 0  -0.9333333333333333 -0.6 0  -0.8666666666666667 -0.6 0  -0.8 -0.6 0  -0.7333333333333334 -0.6 0  -0.6666666666666667 -0.6 0  -0.6 -0.6 0  -0.5333333333333333 -0.6 0  -0.4666666666666667 -0.6 0  -0.4 -0.6 0  -0.3333333333333334 -0.6 0  -0.2666666666666667 -0.6 0  -0.2 -0.6 0  -0.1333333333333333 -0.6 0  -0.06666666666666665 -0.6 0  0 -0.6 0  0.06666666666666665 -0.6 0  0.1333333333333333 -0.6 0  0.2 -0.6 0  0.2666666666666666 -0.6 0  0.3333333333333333 -0.6 0  0.3999999999999999 -0.6 0  0.4666666666666666 -0.6 0  0.5333333333333334 -0.6 0  0.6000000000000001 -0.6 0  0.6666666666666667 -0.6 0  0.7333333333333334 -0.6 0  0.8 -0.6 0  0.8666666666666667 -0.6 0  0.9333333333333333 -0.6 0  1 -0.6 0  -1 -0.5333333333333333 0  -0.9333333333333333 -0.5333333333333333 0  -0.8666666666666667 -0.5333333333333333 0  -0.8 -0.5333333333333333 0  -0.7333333333333334 -0.5333333333333333 0  -0.6666666666666667 -0.5333333333333333 0  -0.6 -0.5333333333333333 0  -0.5333333333333333 -0.5333333333333333 0  -0.4666666666666667 -0.5333333333333333 0  -0.4 -0.5333333333333333 0  -0.3333333333333334 -0.5333333333333333 0  -0.2666666666666667 -0.5333333333333333 0  -0.2 -0.5333333333333333 0  -0.1333333333333333 -0.5333333333333333 0  -0.06666666666666665 -0.5333333333333333 0  0 -0.5333333333333333 0  0.06666666666666665 -0.5333333333333333 0  0.1333333333333333 -0.5333333333333333 0  0.2 -0.5333333333333333 0  0.2666666666666666 -0.5333333333333333 0  0.3333333333333333 -0.5333333333333333 0  0.3999999999999999 -0.5333333333333333 0  0.4666666666666666 -0.5333333333333333 0  0.5333333333333334 -0.5333333333333333 0  0.6000000000000001 -0.5333333333333333 0  0.6666666666666667 -0.5333333333333333 0  0.7333333333333334 -0.5333333333333333 0  0.8 -0.5333333333333333 0  0.8666666666666667 -0.5333333333333333 0  0.9333333333333333 -0.5333333333333333 0  1 -0.5333333333333333 0  -1 -0.4666666666666667 0  -0.9333333333333333 -0.4666666666666667 0  -0.8666666666666667 -0.4666666666666667 0  -0.8 -0.4666666666666667 0  -0.7333333333333334 -0.4666666666666667 0  -0.6666666666666667 -0.4666666666666667 0  -0.6 -0.4666666666666667 0  -0.5333333333333333 -0.4666666666666667 0  -0.4666666666666667 -0.4666666666666667 0  -0.4 -0.4666666666666667 0  -0.3333333333333334 -0.4666666666666667 0  -0.2666666666666667 -0.4666666666666667 0  -0.2 -0.4666666666666667 0  -0.1333333333333333 -0.4666666666666667 0  -0.06666666666666665 -0.4666666666666667 0  0 -0.4666666666666667 0  0.06666666666666665 -0.4666666666666667 0  0.1333333333333333 -0.4666666666666667 0  0.2 -0.4666666666666667 0  0.2666666666666666 -0.4666666666666667 0  0.3333333333333333 -0.4666666666666667 0  0.3999999999999999 -0.4666666666666667 0  0.4666666666666666 -0.4666666666666667 0  0.5333333333333334 -0.4666666666666667 0  0.6000000000000001 -0.4666666666666667 0  0.6666666666666667 -0.4666666666666667 0  0.7333333333333334 -0.4666666666666667 0  0.8 -0.4666666666666667 0  0.8666666666666667 -0.4666666666666667 0  0.9333333333333333 -0.4666666666666667 0  1 -0.4666666666666667 0  -1 -0.4 0  -0.9333333333333333 -0.4 0  -0.8666666666666667 -0.4 0  -0.8 -0.4 0  -0.7333333333333334 -0.4 0  -0.6666666666666667 -0.4 0  -0.6 -0.4 0  -0.5333333333333333 -0.4 0  -0.4666666666666667 -0.4 0  -0.4 -0.4 0  -0.3333333333333334 -0.4 0  -0.2666666666666667 -0.4 0  -0.2 -0.4 0  -0.1333333333333333 -0.4 0  -0.06666666666666665 -0.4 0  0 -0.4 0  0.06666666666666665 -0.4 0  0.1333333333333333 -0.4 0  0.2 -0.4 0  0.2666666666666666 -0.4 0  0.3333333333333333 -0.4 0  0.3999999999999999 -0.4 0  0.4666666666666666 -0.4 0  0.5333333333333334 -0.4 0  0.6000000000000001 -0.4 0  0.6666666666666667 -0.4 0  0.7333333333333334 -0.4 0 
[...]
<PointData  Scalars="f_24"> 
<DataArray  type="Float64"  Name="f_24"  format="ascii">0.0000000000000000e+00  0.0000000000000000e+00  0.0000000000000000e+00  0.0000000000000000e+00  0.0000000000000000e+00  0.0000000000000000e+00  0.0000000000000000e+00  0.0000000000000000e+00  0.0000000000000000e+00  0.0000000000000000e+00  0.0000000000000000e+00  0.0000000000000000e+00  0.0000000000000000e+00  0.0000000000000000e+00  0.0000000000000000e+00  0.0000000000000000e+00  0.0000000000000000e+00  0.0000000000000000e+00  0.0000000000000000e+00  0.0000000000000000e+00  0.0000000000000000e+00  0.0000000000000000e+00  0.0000000000000000e+00  0.0000000000000000e+00  0.0000000000000000e+00  1.7185041506960741e-07  0.0000000000000000e+00  -3.9159939638178403e-07  0.0000000000000000e+00  0.0000000000000000e+00  1.3034357062582632e+01  0.0000000000000000e+00  1.1875928772821862e+07  1.2955823244216414e+07  1.8854708754690807e+07  1.3550075059992885e+07  1.8574820419168223e+07  1.0550327311036533e+07  1.7638955537458930e+07  7.4381330048421007e+06  1.6475115666744746e+07  5.2740287816081634e+06  1.6057146912817230e+07  3.1166790746449977e+06  1.6728871880604450e+07  1.5059774543160601e+06  1.7494961580163620e+07  9.4486965661030018e+05  1.8608636961457729e+07  8.9299643177005195e+05  2.0412424619324416e+07  1.6056487743879959e+06  2.3769465302185889e+07  9.4695242545299453e+05  3.4892562244457901e+07  -5.7461932408784600e+06  6.1018536859807886e+07  -1.8508247944400422e+07  1.0123069033699691e+08  -1.1369065193983125e+07  2.2031088359071085e+08  1.1381423577259884e+01  0.0000000000000000e+00  1.2955823223603023e+07  1.4211254097258499e+07  5.6437058823070712e+06  2.4371525717686499e+06  -3.9922339284767974e+06  -3.6790248844288602e+06  -8.5732975824412294e+06  -6.9012911710910201e+06  -9.4701845218826067e+06  -7.9883838086834615e+06  -1.0358379176941365e+07  -7.5997482373310504e+06  -1.0708175107246133e+07  -8.1158678302119579e+06  -1.0121957315086707e+07  -8.8843136609119829e+06  -1.0254179844516985e+07  -9.2689766649289373e+06  -1.0433138675113443e+07  -1.0015225575227769e+07  -1.1942294730917789e+07  -7.4631657925232649e+06  -2.0547956882022731e+07  -1.2907838979029255e+06  -3.3408010528587759e+07  3.0030233318089927e+06  -2.8878824238313843e+07  -1.7815599823478710e+07  -1.1369073398775790e+07  9.8909207063438362e+00  -7.3680447253910629e-09  1.8854708745778963e+07  5.6437058858860750e+06  1.9498617932824946e+06  -4.6987826922731055e+06  1.2798933114140306e+06  -4.7894554343806338e+06  3.8882920442657275e+06  -2.1973316654406278e+06  6.9280000932780206e+06  -2.1732393393819816e+06  1.0194455809252203e+07  -2.4695348422138137e+06  1.1410970630072625e+07  -2.1696673281795466e+06  1.2507851286323262e+07  -3.3018708802642324e+06  1.4394997334891248e+07  -4.4377675474643875e+06  1.4901363232923912e+07  -5.5159076659366293e+06  1.7991970664429165e+07  -1.1372444254790187e+07  2.9963342713796541e+07  -1.8953578506613441e+07  4.6293859793193989e+07  -3.0571736507029325e+07  5.5393387044656083e+07  -2.8878823674002048e+07  1.0123069193085442e+08  8.5518414651445589e+00  0.0000000000000000e+00  1.3550074996025056e+07  2.4371525916227293e+06  -4.6987826982685523e+06  4.9596881441603601e+05  -4.6796224996197270e+06  4.4443810835264873e+05  -3.3892310062644975e+06  -1.0542752195021538e+05  -5.4277969141250765e+06  -1.1952263351041493e+04  -6.4105603099167505e+06  -1.6774383669712839e+06  -6.0423478016040456e+06  -2.5453649788612085e+06  -6.8967560858628768e+06  -2.2903613311874536e+06  -6.9880412956479779e+06  -3.7033719891189495e+06  -5.3977035531244669e+06  -3.8414187294807197e+06  -9.2206075505427141e+06  3.6294631891570590e+05  -2.1567845442038961e+07  3.3511763686260143e+06  -3.1048613422756217e+07  1.2080864343188008e+07  -3.0571745139036857e+07  3.0030291577117974e+06  -1.8508254813483004e+07  7.3535658679392117e+00  -1.2139547666367825e-08  1.8574820400959913e+07  -3.9922338906962732e+06  1.2798933179816478e+06  -4.6796225033786818e+06  1.3399355727780641e+06  -2.9809209620204219e+06  3.1907976811766289e+06  -4.3812664735967917e+06  6.2014475797817307e+06  -3.9949569158421294e+06  7.0670268708964335e+06  -3.2029473790896870e+06  8.9492539788062964e+06  -4.4437483192156479e+06  1.1325218575756758e+07  -5.2210702439013589e+06  1.1604133174924349e+07  -4.8604452734732544e+06  1.2109725032529617e+07  -8.2772763537535165e+06  1.9971818697421808e+07  -1.4107768428909976e+07  3.2642087567996752e+07  -2.0541411311244078e+07  3.8060881560090370e+07  -3.1048623850234032e+07  4.6293869615295626e+07  -3.3408011591575734e+07  6.1018536315276489e+07  6.2858589229275825e+00  0.0000000000000000e+00  1.0550327218015943e+07  -3.6790248278528340e+06  -4.7894554874641001e+06  4.4443812014906807e+05  -2.9809209668761445e+06  2.5470582898262865e+06  -4.5293397698821174e+06  3.6424637091334132e+06  -4.3154276652188497e+06  1.9170906921545595e+06  -4.4158081812118879e+06  1.8223916088643619e+06  -5.9557319837418823e+06  1.7358064736338076e+06  -6.0156978109598663e+06  2.0932244930789512e+05  -4.6377686093297666e+06  -1.0437035468549227e+06  -5.0545159971371535e+06  1.2651694170794904e+06  -1.2091529461102480e+07  2.5745818922081720e+06  -1.8374268774487931e+07  6.1129884147743946e+06  -2.0541436294540927e+07  3.3511956732400618e+06  -1.8953585858971562e+07  -1.2907847312975607e+06  -5.7461955786317540e+06  5.3388726528338468e+00  1.2476425418171884e-09  1.7638955527657010e+07  -8.5732975265705641e+06  3.8882920389626776e+06  -3.3892309849945740e+06  3.1907976858159276e+06  -4.5293397750852928e+06  4.2959819175821953e+06  -4.0512178376157214e+06  4.1785155395207428e+06  -4.1759645527893715e+06  6.6134488852560725e+06  -5.3030916145441802e+06  8.1068340994551098e+06  -5.1115741502395840e+06  8.7756432104543578e+06  -5.1797301983373659e+06  9.4503737396067698e+06  -6.1124327979449341e+06  1.2235245331214117e+07  -9.7346094332652949e+06  2.0539109776896611e+07  -1.2681576928421076e+07  2.5117481667455621e+07  -1.8374312172561910e+07  3.2642123336928491e+07  -2.1567852643417846e+07  2.9963336345823187e+07  -2.0547949988951348e+07  3.4892561133698769e+07  4.5031450799385011e+00  0.0000000000000000e+00  7.4381328818890285e+06  -6.9012910911392588e+06  -2.1973317527586855e+06  -1.0542749041679030e+05  -4.3812665213278113e+06  3.6424637294784198e+06  -4.0512178461855254e+06  3.5738984104951429e+06  -4.3473997084311116e+06  4.7757588666484971e+06  -5.4396886284584086e+06  3.7051713700921326e+06  -5.1597508906148812e+06  2.9908133372888369e+06  -5.7017626121474449e+06  2.5325696348406412e+06  -4.9073246418766929e+06  1.5638133162048305e+06  -6.3914292200588360e+06  2.8088664387473301e+06  -1.1562586076248130e+07  3.8666563134294730e+06  -1.2681657811009640e+07  2.5746469273935040e+06  -1.4107782807413282e+07  3.6293100984629663e+05  -1.1372432586116485e+07  -7.4631671039803429e+06  9.4694768190937233e+05  3.7696004296942696e+00  3.2439373578137673e-08  1.6475115667316748e+07  -9.4701844402646627e+06  6.9280000749049941e+06  -5.4277968837772878e+06  6.2014476010403596e+06  -4.3154276610775720e+06  4.1785155460222559e+06  -4.3473997129795048e+06  5.4101834455165574e+06  -5.3476425992887188e+06  5.2142274321866985e+06  -4.9432421676889183e+06  7.0105691118017696e+06  -6.2310075978967128e+06  8.3573625079426672e+06  -5.6959047456596866e+06  7.4597547705337964e+06  -5.7773836194759961e+06  1.1697521034843601e+07  -8.9935458445682637e+06  1.6765669771794813e+07  -1.1562724343397325e+07  2.0539223342470188e+07  -1.2091549404864395e+07  1.9971785465591360e+07  -9.2205781632821467e+06  1.7991965782792334e+07  -1.1942299445904341e+07  2.3769468411169630e+07  3.1295492591938818e+00  0.0000000000000000e+00  5.2740286342076678e+06  -7.9883837126754522e+06  -2.1732394816420269e+06  -1.1952182844845624e+04  -3.9949570100681833e+06  1.9170907232201991e+06  -4.1759645952698137e+06  4.7757588908577058e+06  -5.3476426136347810e+06  4.5392458351973249e+06  -4.8651879253560668e+06  5.7337021958064111e+06  -6.6347748343386957e+06  4.9705901028919853e+06  -5.3129579200281873e+06  2.4669048892130135e+06  -3.6978962426354783e+06  2.9783379262921717e+06  -8.4867823773335908e+06  4.7400888437675666e+06  -8.9937757796452716e+06  2.8090567466811012e+06  -9.7346411311070547e+06  1.2651051310173883e+06  -8.2772217993318299e+06  -3.8414278157628756e+06  -5.5159225948048206e+06  -1.0015215345269453e+07  1.6056456539726187e+06  2.5746878148311385e+00  -3.9598199541539497e-09  1.6057146927795753e+07  -1.0358379088947149e+07  1.0194455810505778e+07  -6.4105602703771582e+06  7.0670268808686854e+06  -4.4158081578662815e+06  6.6134489162570778e+06  -5.4396886423689378e+06  5.2142274483646732e+06  -4.8651879309555134e+06  6.4405399966750639e+06  -6.9733947412008410e+06  6.1936936977399336e+06  -4.9536874146082886e+06  5.8578593102812525e+06  -4.6089910403886754e+06  6.7980413040192360e+06  -7.3346991153331697e+06  1.2233195829928176e+07  -8.4871395446599089e+06  1.1697823271683436e+07  -6.3914728534843065e+06  1.2235128508302758e+07  -5.0544147006407762e+06  1.2109708234246975e+07  -5.3977306949812453e+06  1.4901383967164198e+07  -1.0433139836267995e+07  2.0412421113775477e+07  2.0970993169788037e+00  0.0000000000000000e+00  3.1166788835175950e+06  -7.5997481030721422e+06  -2.4695350467001800e+06  -1.6774382634705559e+06  -3.2029475107334149e+06  1.8223916831719095e+06  -5.3030917255090512e+06  3.7051714196368358e+06  -4.9432422161058020e+06  5.7337022269386733e+06  -6.9733947669717595e+06  5.4998109554483332e+06  -4.3304249808231909e+06  4.8624828694927907e+06  -5.7972555895887027e+06  4.1586741444284483e+06  -5.4313170119869867e+06  5.0384546739076655e+06  -7.3352190619950909e+06  2.9787885623094034e+06  -5.7774426165590519e+06  1.5636158666151022e+06  -6.1122624040143853e+06  -1.0437302206939836e+06  -4.8604991501937481e+06  -3.7033309072933570e+06  -4.4377721916901805e+06  -9.2689862516933884e+06  8.9299928733181313e+05  1.6892526753107091e+00  1.0027930585546471e-05  1.6728871928395042e+07  -1.0708175015968254e+07  1.1410970634981351e+07  -6.0423477318795463e+06  8.9492540014441609e+06  -5.9557319775720350e+06  8.1068341533526825e+06  -5.1597508924158569e+06  7.0105691605764730e+06  -6.6347748770382153e+06  6.1936937390357982e+06  -4.3304249901281064e+06  5.5430915539119197e+06  -7.2760842951668417e+06  6.2756824671064001e+06  -3.7683745254494613e+06  5.3438700318516092e+06  -5.4320132332693711e+06  6.7986648569670962e+06  -3.6979679943969920e+06  7.4594449104312351e+06  -4.9070540052258288e+06  9.4503348805371746e+06  -4.6378631347685251e+06  1.1604206914583681e+07  -6.9880464727921281e+06  1.4394974842638090e+07  -1.0254167046436474e+07  1.8608637321160804e+07  1.3440031311406964e+00  0.0000000000000000e+00  1.5059771988968197e+06  -8.1158676671907380e+06  -2.1696675831797412e+06  -2.5453648382816617e+06  -4.4437485397923635e+06  1.7358066122197961e+06  -5.1115743198380163e+06  2.9908134321593754e+06  -6.2310077428186247e+06  4.9705901950116232e+06  -4.9536874848146280e+06  4.8624829060703302e+06  -7.2760843422437049e+06  6.2500999668854875e+06  -2.2854100444977186e+06  7.0319839682692662e+05  -3.7692267369712233e+06  4.1594671959656668e+06  -4.6090733278110102e+06  2.4664586764462451e+06  -5.6955101502995100e+06  2.5325195305547942e+06  -5.1798891076192269e+06  2.0944661410025775e+05  -5.2210790924345227e+06  -2.2904041915740985e+06  -3.3018467670826153e+06  -8.8843113234941158e+06  9.4486207373497682e+05  1.0545921289548339e+00  0.0000000000000000e+00  1.7494961660710499e+07  -1.0121957195217572e+07  1.2507851304786885e+07  -6.8967560269891126e+06  1.1325218652176369e+07  -6.0156978138483427e+06  8.7756432902961280e+06  -5.7017626506121838e+06  8.3573626292283162e+06  -5.3129579809182240e+06  5.8578594000929985e+06  -5.7972556927450579e+06  6.2756826024526460e+06  -2.2854101015701941e+06  -2.3375265528900202e+05  -2.2863544677324034e+06  6.2766018452001540e+06  -5.7973430922728591e+06  5.8572749669308113e+06  -5.3124284381085830e+06  8.3573044529045904e+06  -5.7020057921408843e+06  8.7758352059254758e+06  -6.0157068795363801e+06  1.1325142460971493e+07  -6.8967100232674778e+06  1.2507855717375696e+07  -1.0121973745876359e+07  1.7494967208167151e+07  8.1464731641141452e-01  0.0000000000000000e+00  9.4486931890374213e+05  -8.8843134543982446e+06  -3.3018712459489405e+06  -2.2903610978166307e+06  -5.2210705781872384e+06  2.0932265086411830e+05  -5.1797304766663555e+06  2.5325698448930648e+06  -5.6959050179656921e+06  2.4669050685952529e+06  -4.6089912731499579e+06  4.1586743540746770e+06  -3.7683746905225036e+06  7.0319839679052343e+05  -2.2863544106499096e+06  6.2510662911945228e+06  -7.2761739436634127e+06  4.8617932060156073e+06  -4.9530414415933629e+06  4.9705292818135582e+06  -6.2313482254727446e+06  2.9910855182742141e+06  -5.1115819867396448e+06  1.7356834336879204e+06  -4.4436735476230578e+06  -2.5453554904339495e+06  -2.1697018050032491e+06  -8.1158539102097023e+06  1.5059790848593030e+06  6.1818254434095610e-01  -1.5406718191165367e-08  1.8608637088190831e+07  -1.0254179714247633e+07  1.4394997423910515e+07  -6.9880412685296489e+06  1.1604133306894159e+07  -4.6377686404205263e+06  9.4503739198752437e+06  -4.9073247635438284e+06  7.4597549731090525e+06  -3.6978963546758411e+06  6.7980414917366253e+06  -5.4313171083988333e+06  5.3438700317628877e+06  -3.7692265717877573e+06  6.2766017098700460e+06  -7.2761738965817299e+06  5.5423621893442702e+06  -4.3297101679838151e+06  6.1936335651807133e+06  -6.6352031177931065e+06  7.0109195999435904e+06  -5.1597519610290471e+06  8.1066520344624221e+06  -5.9556186381709622e+06  8.9492709378540684e+06  -6.0424056000728188e+06  1.1410995034147738e+07  -1.0708166825364005e+07  1.6728862840410579e+07  4.5959786599526392e-01  0.0000000000000000e+00  8.9299594285695720e+05  -9.2689763461343683e+06  -4.4377680940754032e+06  -3.7033716531886556e+06  -4.8604457406986812e+06  -1.0437032375599745e+06  -6.1124332321745530e+06  1.5638136000690886e+06  -5.7773839323030310e+06  2.9783380835452168e+06  -7.3346993028567145e+06  5.0384546738544228e+06  -5.4320131366976695e+06  4.1594669861904169e+06  -5.7973429891844848e+06  4.8617931694155317e+06  -4.3297101586875664e+06  5.4997516369506782e+06  -6.9738763381362865e+06  5.7341107893433608e+06  -4.9432350225915834e+06  3.7049286456981231e+06  -5.3029382566614980e+06  1.8224202521393020e+06  -3.2030383796001356e+06  -1.6773991342929706e+06  -2.4695195932590077e+06  -7.5997697337201936e+06  3.1166832374772718e+06  3.3367954080211543e-01  0.0000000000000000e+00  2.0412424835075643e+07  -1.0433138532021461e+07  1.4901363383121835e+07  -5.3977035068226615e+06  1.2109725207947813e+07  -5.0545160328595592e+06  1.2235245526013348e+07  -6.3914292342118751e+06  1.1697521114699584e+07  -8.4867823134077564e+06  1.2233195829801122e+07  -7.3352188744232077e+06  6.7986646691773888e+06  -4.6090730948824026e+06  5.8572748772537159e+06  -4.9530413713182360e+06  6.1936335239162603e+06  -6.9738763123597438e+06  6.4409700865494302e+06  -4.8651742794488892e+06  5.2139378255811846e+06  -5.4394999935158277e+06  6.6134910416405387e+06  -4.4159350972758569e+06  7.0670823512548059e+06  -6.4105327331093317e+06  1.0194416728730869e+07  -1.0358368635134403e+07  1.6057152856889723e+07  2.3560002685589185e-01  0.0000000000000000e+00  1.6056480463839162e+06  -1.0015225138393668e+07  -5.5159083762868363e+06  -3.8414183555625975e+06  -8.2772769055174226e+06  1.2651697054456917e+06  -9.7346098135212809e+06  2.8088665436635516e+06  -8.9935460204266775e+06  4.7400888432730967e+06  -8.4871396080278587e+06  2.9787884050344876e+06  -3.6979678824386462e+06  2.4664584968076413e+06  -5.3124283774572238e+06  4.9705291895415634e+06  -6.6352030751742851e+06  5.7341107581751831e+06  -4.8651742738531353e+06  4.5389384903958254e+06  -5.3474338476985050e+06  4.7758126390093984e+06  -4.1761248111027130e+06  1.9171619639917230e+06  -3.9949164971632543e+06  -1.2011209647028569e+04  -2.1732245606735172e+06  -7.9883685738659855e+06  5.2740174958956791e+06  1.6091798842694616e-01  0.0000000000000000e+00  2.3769465571113721e+07  -1.1942294429410400e+07  1.7991970784522574e+07  -9.2206073920824658e+06  1.9971818855616499e+07  -1.2091529370434331e+07  2.0539109859642960e+07  -1.1562585911613168e+07  1.6765669771562073e+07  -8.9937756028797124e+06  1.1697823191015758e+07  -5.7774423036860302e+06  7.4594447081602989e+06  -5.6955098775296891e+06  8.3573043320259228e+06  -6.2313480802436955e+06  7.0109195513492422e+06  -4.9432349740771232e+06  5.2139378094415925e+06  -5.3474338333502281e+06  5.4102417998119779e+06  -4.3475795725894021e+06  4.1785979740957036e+06  -4.3153739624035247e+06  6.2013682452135617e+06  -5.4277763016628455e+06  6.9280256597076338e+06  -9.4702064540085811e+06  1.6475118261865534e+07  1.0557818654273807e-01  0.0000000000000000e+00  9.4695141585973033e+05  -7.4631652783415494e+06  -1.1372445134827457e+07  3.6294668252259726e+05  -1.4107769025373604e+07  2.5745820690737241e+06  -1.2681577250698736e+07  3.8666563125085342e+06  -1.1562724507675130e+07  2.8090566413840004e+06  -6.3914728383964552e+06  1.5636155825005204e+06  -4.9070538842146574e+06  2.5325193196840268e+06  -5.7020057544154190e+06  2.9910854228333915e+06  -5.1597519596112529e+06  3.7049285959337656e+06  -5.4394999797189273e+06  4.7758126147605292e+06  -4.3475795680431472e+06  3.5739849155416116e+06  -4.0511563276963686e+06  3.6423692134227632e+06  -4.3812425008105300e+06  -1.0539053142848858e+05  -2.1973666016279184e+06  -6.9012869029470440e+06  7.4381406650735922e+06  6.5912008059677160e-02  1.1029025241772487e-08  3.4892562439263009e+07  -2.0547956301410563e+07  2.9963342873728350e+07  -2.1567845201915752e+07  3.2642087744245045e+07  -1.8374268519314483e+07  2.5117481665432598e+07  -1.2681657484898355e+07  2.0539223258755434e+07  -9.7346407512453627e+06  1.2235128312711164e+07  -6.1122619691002714e+06  9.4503347015738394e+06  -5.1798888278238596e+06  8.7758351274254229e+06  -5.1115818160588583e+06  8.1066519813266145e+06  -5.3029381452128282e+06  6.6134910109087983e+06  -4.1761247684915671e+06  4.1785979676358188e+06  -4.0511563191227354e+06  4.2958817031862419e+06  -4.5293135262396205e+06  3.1908431799532264e+06  -3.3892755270160004e+06  3.8882960001259069e+06  -8.5732795835206229e+06  1.7638946053820714e+07  3.8636409021309721e-02  0.0000000000000000e+00  -5.7461947381781377e+06  -1.2907831410457445e+06  -1.8953579687005926e+07  3.3511766807085429e+06  -2.0541411945196111e+07  6.1129884158790577e+06  -1.8374312428354412e+07  2.5746467459213897e+06  -1.2091549492968166e+07  1.2651048439204469e+06  -5.0544146645622700e+06  -1.0437305316251451e+06  -4.6378631061773235e+06  2.0944640981774460e+05  -6.0157068791120099e+06  1.7356832930650155e+06  -5.9556186458415873e+06  1.8224201768140676e+06  -4.4159351212422736e+06  1.9171619325928073e+06  -4.3153739666970000e+06  3.6423691930324854e+06  -4.5293135210406026e+06  2.5471070613276223e+06  -2.9809716387657411e+06  4.4444196619067941e+05  -4.7894302564926054e+06  -3.6790412730989330e+06  1.0550326224432755e+07  2.0854971300132193e-02  0.0000000000000000e+00  6.1018536866148971e+07  -3.3408009621163569e+07  4.6293860078925952e+07  -3.1048612900017597e+07  3.8060881548719354e+07  -2.0541435643521223e+07  3.2642123166719560e+07  -1.4107782209939670e+07  1.9971785301485479e+07  -8.2772212498041466e+06  1.2109708059729615e+07  -4.8604986791206757e+06  1.1604206787756404e+07  -5.2210787528057639e+06  1.1325142389388578e+07  -4.4436733230649605e+06  8.9492709182493966e+06  -3.2030382458190382e+06  7.0670823426708095e+06  -3.9949164021232948e+06  6.2013682243752712e+06  -4.3812424528982714e+06  3.1908431753648343e+06  -2.9809716339051267e+06  1.3399392591636402e+06  -4.6795923304666663e+06  1.2798715292499512e+06  -3.9922352543279575e+06  1.8574828373242449e+07  1.0057374276684121e-02  0.0000000000000000e+00  -1.8508250515163869e+07  3.0030243617972308e+06  -3.0571737780917864e+07  1.2080864327377329e+07  -3.1048624431379881e+07  3.3511953268682021e+06  -2.156785