<?xml version="1.0"?>
<VTKFile type="UnstructuredGrid"  version="0.1"  >
<UnstructuredGrid>
<Piece  NumberOfPoints="961" NumberOfCells="1800">
<Points>
<DataArray  type="Float64"  NumberOfComponents="3"  format="ascii">-1 -1 0  -0.9333333333333333 -1 0  -0.8666666666666667 -1 0  -0.8 -1 0  -0.7333333333333334 -1 0  -0.6666666666666667 -1 0  -0.6 -1 0  -0.5333333333333333 -1 0  -0.4666666666666667 -1 0  -0.4 -1 0  -0.3333333333333334 -1 0  -0.2666666666666667 -1 0  -0.2 -1 0  -0.1333333333333333 -1 0  -0.06666666666666665 -1 0  0 -1 0  0.06666666666666665 -1 0  0.1333333333333333 -1 0  0.2 -1 0  0.2666666666666666 -1 0  0.3333333333333333 -1 0  0.3999999999999999 -1 0  0.4666666666666666 -1 0  0.5333333333333334 -1 0  0.6000000000000001 -1 0  0.6666666666666667 -1 0  0.7333333333333334 -1 0  0.8 -1 0  0.8666666666666667 -1 0  0.9333333333333333 -1 0  1 -1 0  -1 -0.9333333333333333 0  -0.9333333333333333 -0.9333333333333333 0  -0.8666666666666667 -0.9333333333333333 0  -0.8 -0.9333333333333333 0  -0.7333333333333334 -0.9333333333333333 0  -0.6666666666666667 -0.9333333333333333 0  -0.6 -0.9333333333333333 0  -0.5333333333333333 -0.9333333333333333 0  -0.4666666666666667 -0.9333333333333333 0  -0.4 -0.9333333333333333 0  -0.3333333333333334 -0.9333333333333333 0  -0.2666666666666667 -0.9333333333333333 0  -0.2 -0.9333333333333333 0  -0.1333333333333333 -0.9333333333333333 0  -0.06666666666666665 -0.9333333333333333 0  0 -0.9333333333333333 0  0.06666666666666665 -0.9333333333333333 0  0.1333333333333333 -0.9333333333333333 0  0.2 -0.9333333333333333 0  0.2666666666666666 -0.9333333333333333 0  0.3333333333333333 -0.9333333333333333 0  0.3999999999999999 -0.9333333333333333 0  0.4666666666666666 -0.9333333333333333 0  0.5333333333333334 -0.9333333333333333 0  0.6000000000000001 -0.9333333333333333 0  0.6666666666666667 -0.9333333333333333 0  0.7333333333333334 -0.9333333333333333 0  0.8 -0.9333333333333333 0  0.8666666666666667 -0.9333333333333333 0  0.9333333333333333 -0.9333333333333333 0  1 -0.9333333333333333 0  -1 -0.8666666666666667 0  -0.9333333333333333 -0.8666666666666667 0  -0.8666666666666667 -0.8666666666666667 0  -0.8 -0.8666666666666667 0  -0.7333333333333334 -0.8666666666666667 0  -0.6666666666666667 -0.8666666666666667 0  -0.6 -0.8666666666666667 0  -0.5333333333333333 -0.8666666666666667 0  -0.4666666666666667 -0.8666666666666667 0  -0.4 -0.8666666666666667 0  -0.3333333333333334 -0.8666666666666667 0  -0.2666666666666667 -0.8666666666666667 0  -0.2 -0.8666666666666667 0  -0.1333333333333333 -0.8666666666666667 0  -0.06666666666666665 -0.8666666666666667 0  0 -0.8666666666666667 0  0.06666666666666665 -0.8666666666666667 0  0.1333333333333333 -0.8666666666666667 0  0.2 -0.8666666666666667 0  0.2666666666666666 -0.8666666666666667 0  0.3333333333333333 -0.8666666666666667 0  0.3999999999999999 -0.8666666666666667 0  0.4666666666666666 -0.8666666666666667 0  0.5333333333333334 -0.8666666666666667 0  0.6000000000000001 -0.8666666666666667 0  0.6666666666666667 -0.8666666666666667 0  0.7333333333333334 -0.8666666666666667 0  0.8 -0.8666666666666667 0  0.8666666666666667 -0.8666666666666667 0  0.9333333333333333 -0.8666666666666667 0  1 -0.8666666666666667 0  -1 -0.8 0  -0.9333333333333333 -0.8 0  -0.8666666666666667 -0.8 0  -0.8 -0.8 0  -0.7333333333333334 -0.8 0  -0.6666666666666667 -0.8 0  -0.6 -0.8 0  -0.5333333333333333 -0.8 0  -0.4666666666666667 -0.8 0  -0.4 -0.8 0  -0.3333333333333334 -0.8 0  -0.2666666666666667 -0.8 0  -0.2 -0.8 0  -0.1333333333333333 -0.8 0  -0.06666666666666665 -0.8 0  0 -0.8 0  0.06666666666666665 -0.8 0  0.1333333333333333 -0.8 0  0.2 -0.8 0  0.2666666666666666 -0.8 0  0.3333333333333333 -0.8 0  0.3999999999999999 -0.8 0  0.4666666666666666 -0.8 0  0.5333333333333334 -0.8 0  0.6000000000000001 -0.8 0  0.6666666666666667 -0.8 0  0.7333333333333334 -0.8 0  0.8 -0.8 0  0.8666666666666667 -0.8 0  0.9333333333333333 -0.8 0  1 -0.8 0  -1 -0.7333333333333334 0  -0.9333333333333333 -0.7333333333333334 0  -0.8666666666666667 -0.7333333333333334 0  -0.8 -0.7333333333333334 0  -0.7333333333333334 -0.7333333333333334 0  -0.6666666666666667 -0.7333333333333334 0  -0.6 -0.7333333333333334 0  -0.5333333333333333 -0.7333333333333334 0  -0.4666666666666667 -0.7333333333333334 0  -0.4 -0.7333333333333334 0  -0.3333333333333334 -0.7333333333333334 0  -0.2666666666666667 -0.7333333333333334 0  -0.2 -0.7333333333333334 0  -0.1333333333333333 -0.7333333333333334 0  -0.06666666666666665 -0.7333333333333334 0  0 -0.7333333333333334 0  0.06666666666666665 -0.7333333333333334 0  0.1333333333333333 -0.7333333333333334 0  0.2 -0.7333333333333334 0  0.2666666666666666 -0.7333333333333334 0  0.3333333333333333 -0.7333333333333334 0  0.3999999999999999 -0.7333333333333334 0  0.4666666666666666 -0.7333333333333334 0  0.5333333333333334 -0.7333333333333334 0  0.6000000000000001 -0.7333333333333334 0  0.6666666666666667 -0.7333333333333334 0  0.7333333333333334 -0.7333333333333334 0  0.8 -0.7333333333333334 0  0.8666666666666667 -0.7333333333333334 0  0.9333333333333333 -0.7333333333333334 0  1 -0.7333333333333334 0  -1 -0.6666666666666667 0  -0.9333333333333333 -0.6666666666666667 0  -0.8666666666666667 -0.6666666666666667 0  -0.8 -0.6666666666666667 0  -0.7333333333333334 -0.6666666666666667 0  -0.6666666666666667 -0.6666666666666667 0  -0.6 -0.6666666666666667 0  -0.5333333333333333 -0.6666666666666667 0  -0.4666666666666667 -0.6666666666666667 0  -0.4 -0.6666666666666667 0  -0.3333333333333334 -0.6666666666666667 0  -0.2666666666666667 -0.6666666666666667 0  -0.2 -0.6666666666666667 0  -0.1333333333333333 -0.6666666666666667 0  -0.06666666666666665 -0.6666666666666667 0  0 -0.6666666666666667 0  0.06666666666666665 -0.6666666666666667 0  0.1333333333333333 -0.6666666666666667 0  0.2 -0.6666666666666667 0  0.2666666666666666 -0.6666666666666667 0  0.3333333333333333 -0.6666666666666667 0  0.3999999999999999 -0.6666666666666667 0  0.4666666666666666 -0.6666666666666667 0  0.5333333333333334 -0.6666666666666667 0  0.6000000000000001 -0.6666666666666667 0  0.6666666666666667 -0.6666666666666667 0  0.7333333333333334 -0.6666666666666667 0  0.8 -0.6666666666666667 0  0.8666666666666667 -0.6666666666666667 0  0.9333333333333333 -0.6666666666666667 0  1 -0.6666666666666667 0  -1 -0.6 0  -0.9333333333333333 -0.6 0  -0.8666666666666667 -0.6 0  -0.8 -0.6 0  -0.7333333333333334 -0.6 0  -0.6666666666666667 -0.6 0  -0.6 -0.6 0  -0.5333333333333333 -0.6 0  -0.4666666666666667 -0.6 0  -0.4 -0.6 0  -0.3333333333333334 -0.6 0  -0.2666666666666667 -0.6 0  -0.2 -0.6 0  -0.1333333333333333 -0.6 0  -0.06666666666666665 -0.6 0  0 -0.6 0  0.06666666666666665 -0.6 0  0.1333333333333333 -0.6 0  0.2 -0.6 0  0.2666666666666666 -0.6 0  0.3333333333333333 -0.6 0  0.3999999999999999 -0.6 0  0.4666666666666666 -0.6 0  0.5333333333333334 -0.6 0  0.6000000000000001 -0.6 0  0.6666666666666667 -0.6 0  0.7333333333333334 -0.6 0  0.8 -0.6 0  0.8666666666666667 -0.6 0  0.9333333333333333 -0.6 0  1 -0.6 0  -1 -0.5333333333333333 0  -0.9333333333333333 -0.5333333333333333 0  -0.8666666666666667 -0.5333333333333333 0  -0.8 -0.5333333333333333 0  -0.7333333333333334 -0.5333333333333333 0  -0.6666666666666667 -0.5333333333333333 0  -0.6 -0.5333333333333333 0  -0.5333333333333333 -0.5333333333333333 0  -0.4666666666666667 -0.5333333333333333 0  -0.4 -0.5333333333333333 0  -0.3333333333333334 -0.5333333333333333 0  -0.2666666666666667 -0.5333333333333333 0  -0.2 -0.5333333333333333 0  -0.1333333333333333 -0.5333333333333333 0  -0.06666666666666665 -0.5333333333333333 0  0 -0.5333333333333333 0  0.06666666666666665 -0.5333333333333333 0  0.1333333333333333 -0.5333333333333333 0  0.2 -0.5333333333333333 0  0.2666666666666666 -0.5333333333333333 0  0.3333333333333333 -0.5333333333333333 0  0.3999999999999999 -0.5333333333333333 0  0.4666666666666666 -0.5333333333333333 0  0.5333333333333334 -0.5333333333333333 0  0.6000000000000001 -0.5333333333333333 0  0.6666666666666667 -0.5333333333333333 0  0.7333333333333334 -0.5333333333333333 0  0.8 -0.5333333333333333 0  0.8666666666666667 -0.5333333333333333 0  0.9333333333333333 -0.5333333333333333 0  1 -0.5333333333333333 0  -1 -0.4666666666666667 0  -0.9333333333333333 -0.4666666666666667 0  -0.8666666666666667 -0.4666666666666667 0  -0.8 -0.4666666666666667 0  -0.7333333333333334 -0.4666666666666667 0  -0.6666666666666667 -0.4666666666666667 0  -0.6 -0.4666666666666667 0  -0.5333333333333333 -0.4666666666666667 0  -0.4666666666666667 -0.4666666666666667 0  -0.4 -0.4666666666666667 0  -0.3333333333333334 -0.4666666666666667 0  -0.2666666666666667 -0.4666666666666667 0  -0.2 -0.4666666666666667 0  -0.1333333333333333 -0.4666666666666667 0  -0.06666666666666665 -0.4666666666666667 0  0 -0.4666666666666667 0  0.06666666666666665 -0.4666666666666667 0  0.1333333333333333 -0.4666666666666667 0  0.2 -0.4666666666666667 0  0.2666666666666666 -0.4666666666666667 0  0.3333333333333333 -0.4666666666666667 0  0.3999999999999999 -0.4666666666666667 0  0.4666666666666666 -0.4666666666666667 0  0.5333333333333334 -0.4666666666666667 0  0.6000000000000001 -0.4666666666666667 0  0.6666666666666667 -0.4666666666666667 0  0.7333333333333334 -0.4666666666666667 0  0.8 -0.4666666666666667 0  0.8666666666666667 -0.4666666666666667 0  0.9333333333333333 -0.4666666666666667 0  1 -0.4666666666666667 0  -1 -0.4 0  -0.9333333333333333 -0.4 0  -0.8666666666666667 -0.4 0  -0.8 -0.4 0  -0.7333333333333334 -0.4 0  -0.6666666666666667 -0.4 0  -0.6 -0.4 0  -0.5333333333333333 -0.4 0  -0.4666666666666667 -0.4 0  -0.4 -0.4 0  -0.3333333333333334 -0.4 0  -0.2666666666666667 -0.4 0  -0.2 -0.4 0  -0.1333333333333333 -0.4 0  -0.06666666666666665 -0.4 0  0 -0.4 0  0.06666666666666665 -0.4 0  0.1333333333333333 -0.4 0  0.2 -0.4 0  0.2666666666666666 -0.4 0  0.3333333333333333 -0.4 0  0.3999999999999999 -0.4 0  0.4666666666666666 -0.4 0  0.5333333333333334 -0.4 0  0.6000000000000001 -0.4 0  0.6666666666666667 -0.4 0  0.7333333333333334 -0.4 0 
[...]
<PointData  Scalars="f_24"> 
<DataArray  type="Float64"  Name="f_24"  format="ascii">0.0000000000000000e+00  0.0000000000000000e+00  0.0000000000000000e+00  0.0000000000000000e+00  0.0000000000000000e+00  0.0000000000000000e+00  0.0000000000000000e+00  0.0000000000000000e+00  0.0000000000000000e+00  0.0000000000000000e+00  0.0000000000000000e+00  0.0000000000000000e+00  0.0000000000000000e+00  0.0000000000000000e+00  0.0000000000000000e+00  0.0000000000000000e+00  0.0000000000000000e+00  0.0000000000000000e+00  0.0000000000000000e+00  0.0000000000000000e+00  0.0000000000000000e+00  0.0000000000000000e+00  0.0000000000000000e+00  0.0000000000000000e+00  0.0000000000000000e+00  -6.7564643534462012e-08  0.0000000000000000e+00  4.8949924547723003e-08  0.0000000000000000e+00  0.0000000000000000e+00  1.3231346143093795e+01  0.0000000000000000e+00  1.2044721360502150e+07  1.3130977914768372e+07  1.9110107542159490e+07  1.3717473150881417e+07  1.8811560014837783e+07  1.0660304881446168e+07  1.7851675722068831e+07  7.4932340115777357e+06  1.6664158289644388e+07  5.2918358592619356e+06  1.6236493084075820e+07  3.0995001018480849e+06  1.6916751449362371e+07  1.4634882716953817e+06  1.7693967340160612e+07  8.9394964865618874e+05  1.8825003418098513e+07  8.4237882857307675e+05  2.0657779662195358e+07  1.5683286164161169e+06  2.4069050465121493e+07  9.0436949246417359e+05  3.5366332545245938e+07  -5.8821610201071724e+06  6.1896744901756234e+07  -1.8825350579544649e+07  1.0273055962440978e+08  -1.1561973622349987e+07  2.2362900963700441e+08  1.1553431767201879e+01  0.0000000000000000e+00  1.3130977893828725e+07  1.4388289705642922e+07  5.6788992886330318e+06  2.4165983986982037e+06  -4.1127082651143349e+06  -3.7939549412922687e+06  -8.7588668470663298e+06  -7.0568087532719141e+06  -9.6590976221450698e+06  -8.1495296646814896e+06  -1.0550445985714758e+07  -7.7460822769840136e+06  -1.0898427996509828e+07  -8.2650646046578791e+06  -1.0300758824200466e+07  -9.0449442358935233e+06  -1.0437218895698482e+07  -9.4399767195236571e+06  -1.0625570516720098e+07  -1.0205975361948712e+07  -1.2167266189850323e+07  -7.6255712940717163e+06  -2.0912607778798651e+07  -1.3675819179368943e+06  -3.3971020404093578e+07  2.9926559189492394e+06  -2.9364413739630725e+07  -1.8122430720533688e+07  -1.1561981951124625e+07  1.0040402831199929e+01  -2.2670906847357116e-09  1.9110107533082612e+07  5.6788992922527930e+06  1.9203035745341156e+06  -4.8270662993157720e+06  1.2513337850988242e+06  -4.8963025555658424e+06  3.9272230718589076e+06  -2.2365833979998743e+06  7.0385531218916541e+06  -2.1906575024164408e+06  1.0371206807132104e+07  -2.4789512643584795e+06  1.1614730503616126e+07  -2.1692055183163737e+06  1.2730674922627404e+07  -3.3186289290720839e+06  1.4643617301947275e+07  -4.4772198670397429e+06  1.5148872735529261e+07  -5.5841351434508311e+06  1.8269518475151885e+07  -1.1550142001872538e+07  3.0396980440266229e+07  -1.9272998836411759e+07  4.6947622634635270e+07  -3.1088492592840873e+07  5.6173508286075525e+07  -2.9364413166780148e+07  1.0273056124238323e+08  8.6810860345615239e+00  0.0000000000000000e+00  1.3717473085901715e+07  2.4165984188284734e+06  -4.8270663054115372e+06  4.6141246254392137e+05  -4.7703286596412463e+06  4.5329115374733089e+05  -3.4201009125381969e+06  -7.3762153533887118e+04  -5.4685691473514130e+06  3.3241169267457102e+04  -6.4604480753719602e+06  -1.6556837551790287e+06  -6.0870021977014774e+06  -2.5377370782973878e+06  -6.9551509220402334e+06  -2.2791208089192146e+06  -7.0474662029745262e+06  -3.7129328087502071e+06  -5.4332128830306055e+06  -3.8552110538241868e+06  -9.3199855514205527e+06  4.0035453260142740e+05  -2.1874544261024848e+07  3.4034906746580722e+06  -3.1537142897753760e+07  1.2223289424096342e+07  -3.1088501355291478e+07  2.9926618329234389e+06  -1.8825357552395537e+07  7.4647007840573218e+00  -9.6496856790367529e-09  1.8811559996297788e+07  -4.1127082267905967e+06  1.2513337917551699e+06  -4.7703286634554528e+06  1.3692290097160134e+06  -2.9953372356531471e+06  3.2814879461618210e+06  -4.4013401824870976e+06  6.3397520372844776e+06  -4.0148021856136969e+06  7.2096788343731631e+06  -3.2196634016135004e+06  9.1130229741422404e+06  -4.4842857813665941e+06  1.1522298117440173e+07  -5.2734193974773074e+06  1.1807855589459773e+07  -4.9024986059485450e+06  1.2328077352335002e+07  -8.3625389580405001e+06  2.0317186152801644e+07  -1.4276103223642686e+07  3.3176226560506109e+07  -2.0822707080503140e+07  3.8644212710205197e+07  -3.1537153482824750e+07  4.6947632605189174e+07  -3.3971021483117372e+07  6.1896744349045232e+07  6.3808575149950801e+00  0.0000000000000000e+00  1.0660304786955537e+07  -3.7939548838876439e+06  -4.8963026094582407e+06  4.5329116572798480e+05  -2.9953372405803227e+06  2.6297675586392051e+06  -4.5526372983353576e+06  3.7365034177161772e+06  -4.3500066711924607e+06  1.9688794233260071e+06  -4.4657696491240459e+06  1.8624380976780120e+06  -6.0358446025613062e+06  1.7704767944931942e+06  -6.0985374107295517e+06  2.2102916268660885e+05  -4.6977853972896468e+06  -1.0467538601699882e+06  -5.1139817633673716e+06  1.3070567354445746e+06  -1.2243984557363713e+07  2.6516930738188308e+06  -1.8608017269853152e+07  6.2479696921806037e+06  -2.0822732441375982e+07  3.4035102710188539e+06  -1.9273006299876828e+07  -1.3675827638948751e+06  -5.8821633931301637e+06  5.4195593802112194e+00  -2.4952850836343768e-09  1.7851675712050468e+07  -8.7588667903725747e+06  3.9272230664750733e+06  -3.4201008909367481e+06  3.2814879508747105e+06  -4.5526373036150355e+06  4.3974297521668449e+06  -4.0873651866177740e+06  4.2570091792000653e+06  -4.2303823724781517e+06  6.7180740985314827e+06  -5.3807141446377505e+06  8.2307560414098799e+06  -5.1878761096678721e+06  8.9090795241679791e+06  -5.2569854585658498e+06  9.5947547681027185e+06  -6.2020226143075582e+06  1.2425189288672009e+07  -9.8725815422979649e+06  2.0865147996164802e+07  -1.2848175474345200e+07  2.5532937888540402e+07  -1.8608061323807400e+07  3.3176262870009687e+07  -2.1874551571249194e+07  3.0396973976052683e+07  -2.0912600781522114e+07  3.5366331417759351e+07  4.5712014025055678e+00  0.0000000000000000e+00  7.4932338866999513e+06  -7.0568086721278662e+06  -2.2365834866334642e+06  -7.3762121512084021e+04  -4.4013402309367415e+06  3.7365034383702660e+06  -4.0873651953181485e+06  3.6410645449410416e+06  -4.4073603659298876e+06  4.8499104359945701e+06  -5.5214304403735446e+06  3.7610596836679368e+06  -5.2379223519603573e+06  3.0357640178543180e+06  -5.7881168084248463e+06  2.5706295397746065e+06  -4.9815983484157594e+06  1.5874718641072016e+06  -6.4873623772823038e+06  2.8535705163910617e+06  -1.1731162736880815e+07  3.9385893074630564e+06  -1.2848257579316728e+07  2.6517590918824063e+06  -1.4276117819452843e+07  4.0033899215213041e+05  -1.1550130156854309e+07  -7.6255726253228383e+06  9.0436467729425430e+05  3.8265706445636805e+00  2.4870186409905551e-08  1.6664158290159883e+07  -9.6590975393005367e+06  7.0385531032464309e+06  -5.4685691165333884e+06  6.3397520588653209e+06  -4.3500066669870950e+06  4.2570091857986674e+06  -4.4073603705489160e+06  5.4932719681989225e+06  -5.4285042590899272e+06  5.2927079940790897e+06  -5.0181904082387891e+06  7.1163292104232321e+06  -6.3252981583405901e+06  8.4835203791112881e+06  -5.7821221684934283e+06  7.5722976752050109e+06  -5.8648941571429577e+06  1.1874115649302550e+07  -9.1292757726785466e+06  1.7020676522120297e+07  -1.1731303093669891e+07  2.0865263278063044e+07  -1.2244004802534280e+07  2.0317152418728992e+07  -9.3199557200388219e+06  1.8269513519721780e+07  -1.2167270976072822e+07  2.4069053621147279e+07  3.1768462317253578e+00  0.0000000000000000e+00  5.2918357095778808e+06  -8.1495295672241226e+06  -2.1906576468197019e+06  3.3241251001287630e+04  -4.0148022812651945e+06  1.9688794548614149e+06  -4.2303824156013923e+06  4.8499104605700541e+06  -5.4285042736510625e+06  4.6075555133500639e+06  -4.9388444945952501e+06  5.8202924699305128e+06  -6.7350120774604231e+06  5.0457023746621702e+06  -5.3931984097688477e+06  2.5041921624600296e+06  -3.7537560937426877e+06  3.0232426924055298e+06  -8.6151933002850767e+06  4.8114777676696982e+06  -9.1295091827794798e+06  2.8537637004611148e+06  -9.8726137191894483e+06  1.3069914778245706e+06  -8.3624835791375441e+06  -3.8552202774377111e+06  -5.5841502979560709e+06  -1.0205964977366604e+07  1.5683254488949522e+06  2.6135992381419850e+00  -3.9598199541539497e-09  1.6236493099230900e+07  -1.0550445896387847e+07  1.0371206808410292e+07  -6.4604480352269989e+06  7.2096788444921048e+06  -4.4657696254228540e+06  6.7180741300000632e+06  -5.5214304544940181e+06  5.2927080105007226e+06  -4.9388445002814801e+06  6.5378075272732833e+06  -7.0787708954598578e+06  6.2872611851302292e+06  -5.0285669640851757e+06  5.9463419404138718e+06  -4.6786774741102466e+06  6.9007532957779951e+06  -7.4455046411353005e+06  1.2418028085438095e+07  -8.6155558655033540e+06  1.1874422453866821e+07  -6.4874066701414529e+06  1.2425070700208178e+07  -5.1138789359650454e+06  1.2328060300175956e+07  -5.4332404350909684e+06  1.5148893783108864e+07  -1.0625571695410112e+07  2.0657776103708539e+07  2.1287929144618842e+00  0.0000000000000000e+00  3.0994999077944313e+06  -7.7460821406882703e+06  -2.4789514719323269e+06  -1.6556836501091388e+06  -3.2196635352488365e+06  1.8624381731116269e+06  -5.3807142572822003e+06  3.7610597339614886e+06  -5.0181904573879633e+06  5.8202925015337290e+06  -7.0787709216179019e+06  5.5829178458302170e+06  -4.3958552375178598e+06  4.9359537919557085e+06  -5.8848299502494019e+06  4.2215166857557613e+06  -5.5133875575151369e+06  5.1145252523789955e+06  -7.4460324457850056e+06  3.0237001389143402e+06  -5.8649540458472902e+06  1.5872714304491240e+06  -6.2018496452012444e+06  -1.0467809371287232e+06  -4.9025532969108205e+06  -3.7128911060574874e+06  -4.4772245814689444e+06  -9.4399864511623792e+06  8.4238172732656216e+05  1.7147824601449557e+00  -1.4212144903419469e-06  1.6916751497848235e+07  -1.0898427903845146e+07  1.1614730508597784e+07  -6.0870021269193674e+06  9.1130229971203562e+06  -6.0358445962964892e+06  8.2307560961195938e+06  -5.2379223537878813e+06  7.1163292599341022e+06  -6.7350121208038302e+06  6.2872612270494392e+06  -4.3958552469600672e+06  5.6268175236199051e+06  -7.3860387501320243e+06  6.3704762597718583e+06  -3.8253480496307756e+06  5.4246343352098949e+06  -5.5140943008361747e+06  6.9013862725223769e+06  -3.7538289298926909e+06  7.5719831321664760e+06  -4.9813236216149610e+06  9.5947153217526209e+06  -4.6978813512933981e+06  1.1807930443552556e+07  -7.0474714583636159e+06  1.4643594469752572e+07  -1.0437205904190935e+07  1.8825003783260792e+07  1.3643151373053541e+00  0.0000000000000000e+00  1.4634880124023475e+06  -8.2650644391632555e+06  -2.1692057771738283e+06  -2.5377369355927291e+06  -4.4842860052752290e+06  1.7704769351949515e+06  -5.1878762818481289e+06  3.0357641141597652e+06  -6.3252983054535137e+06  5.0457024681748133e+06  -5.0285670353558091e+06  4.9359538290895484e+06  -7.3860387979239933e+06  6.3445468064443460e+06  -2.3199288759503989e+06  7.1383489197125111e+05  -3.8262131406800537e+06  4.2223217227325356e+06  -4.6787610051462650e+06  2.5037392060512672e+06  -5.7817216095880596e+06  2.5705786782605485e+06  -5.2571467694552969e+06  2.2115520399387155e+05  -5.2734283797380775e+06  -2.2791643170588785e+06  -3.3186044514772594e+06  -9.0449418631404769e+06  8.9394195119306643e+05  1.0705302479429568e+00  0.0000000000000000e+00  1.7693967421916012e+07  -1.0300758702509044e+07  1.2730674941355485e+07  -6.9551508622742863e+06  1.1522298195013389e+07  -6.0985374136626832e+06  8.9090796051984783e+06  -5.7881168474603556e+06  8.4835205022308007e+06  -5.3931984715792118e+06  5.9463420315827988e+06  -5.8848300549609521e+06  6.3704763971592430e+06  -2.3199289338800623e+06  -2.3733234827278886e+05  -2.3208875723156007e+06  6.3714095324829826e+06  -5.8849187753672153e+06  5.9457487658433281e+06  -5.3926609257542575e+06  8.4834614466835242e+06  -5.7883636636123862e+06  8.9092744212772343e+06  -6.0985466163566178e+06  1.1522220852327218e+07  -6.9551041632963438e+06  1.2730679420638638e+07  -1.0300775503301462e+07  1.7693973053218633e+07  8.2695913394336218e-01  0.0000000000000000e+00  8.9394930585892557e+05  -9.0449440262487195e+06  -3.3186293002937832e+06  -2.2791205720234560e+06  -5.2734197368135927e+06  2.2102936730633571e+05  -5.2569857411042480e+06  2.5706297530036536e+06  -5.7821224449159857e+06  2.5041923445519442e+06  -4.6786777103877235e+06  4.2215168985700328e+06  -3.8253482172002313e+06  7.1383489193339308e+05  -2.3208875143684349e+06  6.3455277348783491e+06  -7.3861297534943400e+06  4.9352537055537794e+06  -5.0279112284418521e+06  5.0456406343919653e+06  -6.3256439338441156e+06  3.0360403123301570e+06  -5.1878840646022018e+06  1.7703518950402720e+06  -4.4842098797455840e+06  -2.5377274464687565e+06  -2.1692405161947170e+06  -8.2650504742724458e+06  1.4634899268681149e+06  6.2752517707789046e-01  -2.3110077286748050e-08  1.8825003546762522e+07  -1.0437218763450341e+07  1.4643617392292347e+07  -7.0474661754516102e+06  1.1807855723425701e+07  -4.6977854288394852e+06  9.5947549510708936e+06  -4.9815984719247324e+06  7.5722978808490979e+06  -3.7537562074755947e+06  6.9007534863334065e+06  -5.5133876553863967e+06  5.4246343351269839e+06  -3.8262129730037185e+06  6.3714093951101508e+06  -7.3861297057027835e+06  5.6260771361183673e+06  -4.3951296216652011e+06  6.2872001437829854e+06  -6.7354468335889839e+06  7.1166849955147384e+06  -5.2379234385499358e+06  8.2305712248545960e+06  -6.0357295439887885e+06  9.1130401894920710e+06  -6.0870608696785504e+06  1.1614755276511613e+07  -1.0898419589454552e+07  1.6916742272516485e+07  4.6654379225368470e-01  0.0000000000000000e+00  8.4237833230650227e+05  -9.4399763958982285e+06  -4.4772204219261818e+06  -3.7129324677510378e+06  -4.9024990802263003e+06  -1.0467535461895207e+06  -6.2020230551010538e+06  1.5874721522696060e+06  -5.8648944746947885e+06  3.0232428520332137e+06  -7.4455048314940678e+06  5.1145252523270845e+06  -5.5140942028068844e+06  4.2223215097877299e+06  -5.8849186707193283e+06  4.9352536683998322e+06  -4.3951296122272238e+06  5.5828576308485279e+06  -7.0792597707998483e+06  5.8207072385696014e+06  -5.0181831551574375e+06  3.7608132909645378e+06  -5.3805584690479543e+06  1.8624671738439493e+06  -3.2197557774206689e+06  -1.6556439295691182e+06  -2.4789357849406488e+06  -7.7461040982436249e+06  3.0995043275569002e+06  3.3872246126320121e-01  -8.2298557378547960e-09  2.0657779881243877e+07  -1.0625570371451976e+07  1.5148872887972500e+07  -5.4332128360369541e+06  1.2328077530397756e+07  -5.1139817996150218e+06  1.2425189486407315e+07  -6.4873623916651132e+06  1.1874115730355976e+07  -8.6151932353794742e+06  1.2418028085306270e+07  -7.4460322553758090e+06  6.9013860818947712e+06  -4.6787607686994942e+06  5.9457486748134866e+06  -5.0279111571051776e+06  6.2872001018960299e+06  -7.0792597446349012e+06  6.5382441171240639e+06  -4.9388306424567532e+06  5.2924140106288232e+06  -5.5212389545768527e+06  6.7181168920265138e+06  -4.4658984832769064e+06  7.2097351532079643e+06  -6.4604200817863094e+06  1.0371167135989418e+07  -1.0550435284585185e+07  1.6236499117933227e+07  2.3916066528523003e-01  0.0000000000000000e+00  1.5683278774630607e+06  -1.0205974918494932e+07  -5.5841358645486645e+06  -3.8552106742664315e+06  -8.3625395181450984e+06  1.3070570281853254e+06  -9.8725819282990377e+06  2.8535706228932212e+06  -9.1292759511879496e+06  4.8114777671673419e+06  -8.6155559298307374e+06  3.0236999792640898e+06  -3.7538288162470027e+06  2.5037390236982573e+06  -5.3926608641879316e+06  5.0456405407257276e+06  -6.7354467903262312e+06  5.8207072069293344e+06  -4.9388306367754331e+06  4.6072435236266796e+06  -5.4282923526218561e+06  4.8499650210210849e+06  -4.2305450527865943e+06  1.9689517722999274e+06  -4.0147611560835559e+06  3.3181332121713436e+04  -2.1906425003478518e+06  -8.1495141996192681e+06  5.2918244029317144e+06  1.6334995238387406e-01  0.0000000000000000e+00  2.4069050738161717e+07  -1.2167265883759940e+07  1.8269518597033948e+07  -9.3199853905711379e+06  2.0317186313363880e+07  -1.2243984465305015e+07  2.0865148080150258e+07  -1.1731162569743885e+07  1.7020676521848798e+07  -9.1295090033441596e+06  1.1874422371983293e+07  -5.8649537282394646e+06  7.5719829268399430e+06  -5.7817213327091439e+06  8.4834613239808362e+06  -6.3256437864193460e+06  7.1166849461873556e+06  -5.0181831059086509e+06  5.2924139942466747e+06  -5.4282923380555185e+06  5.4933312044069581e+06  -4.4075429483870203e+06  4.2570928596128002e+06  -4.3499521567606656e+06  6.3396715037292521e+06  -5.4685482233602032e+06  7.0385790747157056e+06  -9.6591198857405335e+06  1.6664160923921069e+07  1.0717425670709262e-01  0.0000000000000000e+00  9.0436846767843177e+05  -7.6255707720932877e+06  -1.1550142895213841e+07  4.0035490169406962e+05  -1.4276103829126716e+07  2.6516932533569350e+06  -1.2848175801475225e+07  3.9385893065286423e+06  -1.1731303260418020e+07  2.8537635935754571e+06  -6.4874066548458571e+06  1.5872711420415351e+06  -4.9813234987740023e+06  2.5705784642074751e+06  -5.7883636253058640e+06  3.0360402154454701e+06  -5.2379234371116776e+06  3.7608132404480060e+06  -5.5212389405722693e+06  4.8499649964053640e+06  -4.4075429437730275e+06  3.6411523573433948e+06  -4.0873027470961642e+06  3.7364074938876410e+06  -4.4013158473949367e+06  -7.3724603960148495e+04  -2.2366188621755615e+06  -7.0568044206380434e+06  7.4932417875135839e+06  6.6908140496434843e-02  1.1029025241772487e-08  3.5366332743038669e+07  -2.0912607189368855e+07  3.0396980602593124e+07  -2.1874544017266989e+07  3.3176226739389408e+07  -1.8608017010817636e+07  2.5532937886475999e+07  -1.2848257248260222e+07  2.0865263193069927e+07  -9.8726133335887250e+06  1.2425070501652962e+07  -6.2018492037148895e+06  9.5947151400628258e+06  -5.2571464854374053e+06  8.9092743415786754e+06  -5.1878838913606731e+06  8.2305711709180586e+06  -5.3805583559136419e+06  6.7181168608319014e+06  -4.2305450095301112e+06  4.2570928530564457e+06  -4.0873027383917216e+06  4.3973280232248669e+06  -4.5526106580671882e+06  3.2815341325685033e+06  -3.4201461061257245e+06  3.9272270875061853e+06  -8.7588485761477761e+06  1.7851666095035210e+07  3.9220323567368119e-02  0.0000000000000000e+00  -5.8821625399641134e+06  -1.3675811496145192e+06  -1.9273000034622613e+07  3.4034909914378477e+06  -2.0822707724015441e+07  6.2479696932860464e+06  -1.8608061583455481e+07  2.6517589076710539e+06  -1.2244004891952930e+07  1.3069911864020792e+06  -5.1138788993362328e+06  -1.0467812527545944e+06  -4.6978813222685568e+06  2.2115499663518521e+05  -6.0985466159321591e+06  1.7703517523050527e+06  -6.0357295517752068e+06  1.8624670973770674e+06  -4.4658985076069953e+06  1.9689517404254440e+06  -4.3499521611205051e+06  3.7364074731875965e+06  -4.5526106527919210e+06  2.6298170672278325e+06  -2.9953886782779987e+06  4.5329506989633065e+05  -4.8962769971673433e+06  -3.7939715776730087e+06  1.0660303778357953e+07  2.1170153828950052e-02  0.0000000000000000e+00  6.1896744908203498e+07  -3.3971019482895747e+07  4.6947622924657531e+07  -3.1537142367087744e+07  3.8644212698628373e+07  -2.0822731780493043e+07  3.3176262697212469e+07  -1.4276117212947136e+07  2.0317152252132595e+07  -8.3624830213016924e+06  1.2328060123019822e+07  -4.9025528187103225e+06  1.1807930314810026e+07  -5.2734280349755008e+06  1.1522220779662414e+07  -4.4842096517915959e+06  9.1130401695922390e+06  -3.2197556416160301e+06  7.2097351444960060e+06  -4.0147610596069070e+06  6.3396714825753355e+06  -4.4013157987612747e+06  3.2815341279072170e+06  -2.9953886733469591e+06  1.3692327518152280e+06  -4.7702980345379878e+06  1.2513116737297184e+06  -4.1127096110303178e+06  1.8811568089067157e+07  1.0209372023992117e-02  0.0000000000000000e+00  -1.8825353189077355e+07  2.9926569645034904e+06  -3.1088493885925811e+07  1.2223289408010146e+07  -3.1537154072722118e+07  3.4035099194039106e+06  -2.187455