<?xml version="1.0"?>
<VTKFile type="UnstructuredGrid"  version="0.1"  >
<UnstructuredGrid>
<Piece  NumberOfPoints="961" NumberOfCells="1800">
<Points>
<DataArray  type="Float64"  NumberOfComponents="3"  format="ascii">-1 -1 0  -0.9333333333333333 -1 0  -0.8666666666666667 -1 0  -0.8 -1 0  -0.7333333333333334 -1 0  -0.6666666666666667 -1 0  -0.6 -1 0  -0.5333333333333333 -1 0  -0.4666666666666667 -1 0  -0.4 -1 0  -0.3333333333333334 -1 0  -0.2666666666666667 -1 0  -0.2 -1 0  -0.1333333333333333 -1 0  -0.06666666666666665 -1 0  0 -1 0  0.06666666666666665 -1 0  0.1333333333333333 -1 0  0.2 -1 0  0.2666666666666666 -1 0  0.3333333333333333 -1 0  0.3999999999999999 -1 0  0.4666666666666666 -1 0  0.5333333333333334 -1 0  0.6000000000000001 -1 0  0.6666666666666667 -1 0  0.7333333333333334 -1 0  0.8 -1 0  0.8666666666666667 -1 0  0.9333333333333333 -1 0  1 -1 0  -1 -0.9333333333333333 0  -0.9333333333333333 -0.9333333333333333 0  -0.8666666666666667 -0.9333333333333333 0  -0.8 -0.9333333333333333 0  -0.7333333333333334 -0.9333333333333333 0  -0.6666666666666667 -0.9333333333333333 0  -0.6 -0.9333333333333333 0  -0.5333333333333333 -0.9333333333333333 0  -0.4666666666666667 -0.9333333333333333 0  -0.4 -0.9333333333333333 0  -0.3333333333333334 -0.9333333333333333 0  -0.2666666666666667 -0.9333333333333333 0  -0.2 -0.9333333333333333 0  -0.1333333333333333 -0.9333333333333333 0  -0.06666666666666665 -0.9333333333333333 0  0 -0.9333333333333333 0  0.06666666666666665 -0.9333333333333333 0  0.1333333333333333 -0.9333333333333333 0  0.2 -0.9333333333333333 0  0.2666666666666666 -0.9333333333333333 0  0.3333333333333333 -0.9333333333333333 0  0.3999999999999999 -0.9333333333333333 0  0.4666666666666666 -0.9333333333333333 0  0.5333333333333334 -0.9333333333333333 0  0.6000000000000001 -0.9333333333333333 0  0.6666666666666667 -0.9333333333333333 0  0.7333333333333334 -0.9333333333333333 0  0.8 -0.9333333333333333 0  0.8666666666666667 -0.9333333333333333 0  0.9333333333333333 -0.9333333333333333 0  1 -0.9333333333333333 0  -1 -0.8666666666666667 0  -0.9333333333333333 -0.8666666666666667 0  -0.8666666666666667 -0.8666666666666667 0  -0.8 -0.8666666666666667 0  -0.7333333333333334 -0.8666666666666667 0  -0.6666666666666667 -0.8666666666666667 0  -0.6 -0.8666666666666667 0  -0.5333333333333333 -0.8666666666666667 0  -0.4666666666666667 -0.8666666666666667 0  -0.4 -0.8666666666666667 0  -0.3333333333333334 -0.8666666666666667 0  -0.2666666666666667 -0.8666666666666667 0  -0.2 -0.8666666666666667 0  -0.1333333333333333 -0.8666666666666667 0  -0.06666666666666665 -0.8666666666666667 0  0 -0.8666666666666667 0  0.06666666666666665 -0.8666666666666667 0  0.1333333333333333 -0.8666666666666667 0  0.2 -0.8666666666666667 0  0.2666666666666666 -0.8666666666666667 0  0.3333333333333333 -0.8666666666666667 0  0.3999999999999999 -0.8666666666666667 0  0.4666666666666666 -0.8666666666666667 0  0.5333333333333334 -0.8666666666666667 0  0.6000000000000001 -0.8666666666666667 0  0.6666666666666667 -0.8666666666666667 0  0.7333333333333334 -0.8666666666666667 0  0.8 -0.8666666666666667 0  0.8666666666666667 -0.8666666666666667 0  0.9333333333333333 -0.8666666666666667 0  1 -0.8666666666666667 0  -1 -0.8 0  -0.9333333333333333 -0.8 0  -0.8666666666666667 -0.8 0  -0.8 -0.8 0  -0.7333333333333334 -0.8 0  -0.6666666666666667 -0.8 0  -0.6 -0.8 0  -0.5333333333333333 -0.8 0  -0.4666666666666667 -0.8 0  -0.4 -0.8 0  -0.3333333333333334 -0.8 0  -0.2666666666666667 -0.8 0  -0.2 -0.8 0  -0.1333333333333333 -0.8 0  -0.06666666666666665 -0.8 0  0 -0.8 0  0.06666666666666665 -0.8 0  0.1333333333333333 -0.8 0  0.2 -0.8 0  0.2666666666666666 -0.8 0  0.3333333333333333 -0.8 0  0.3999999999999999 -0.8 0  0.4666666666666666 -0.8 0  0.5333333333333334 -0.8 0  0.6000000000000001 -0.8 0  0.6666666666666667 -0.8 0  0.7333333333333334 -0.8 0  0.8 -0.8 0  0.8666666666666667 -0.8 0  0.9333333333333333 -0.8 0  1 -0.8 0  -1 -0.7333333333333334 0  -0.9333333333333333 -0.7333333333333334 0  -0.8666666666666667 -0.7333333333333334 0  -0.8 -0.7333333333333334 0  -0.7333333333333334 -0.7333333333333334 0  -0.6666666666666667 -0.7333333333333334 0  -0.6 -0.7333333333333334 0  -0.5333333333333333 -0.7333333333333334 0  -0.4666666666666667 -0.7333333333333334 0  -0.4 -0.7333333333333334 0  -0.3333333333333334 -0.7333333333333334 0  -0.2666666666666667 -0.7333333333333334 0  -0.2 -0.7333333333333334 0  -0.1333333333333333 -0.7333333333333334 0  -0.06666666666666665 -0.7333333333333334 0  0 -0.7333333333333334 0  0.06666666666666665 -0.7333333333333334 0  0.1333333333333333 -0.7333333333333334 0  0.2 -0.7333333333333334 0  0.2666666666666666 -0.7333333333333334 0  0.3333333333333333 -0.7333333333333334 0  0.3999999999999999 -0.7333333333333334 0  0.4666666666666666 -0.7333333333333334 0  0.5333333333333334 -0.7333333333333334 0  0.6000000000000001 -0.7333333333333334 0  0.6666666666666667 -0.7333333333333334 0  0.7333333333333334 -0.7333333333333334 0  0.8 -0.7333333333333334 0  0.8666666666666667 -0.7333333333333334 0  0.9333333333333333 -0.7333333333333334 0  1 -0.7333333333333334 0  -1 -0.6666666666666667 0  -0.9333333333333333 -0.6666666666666667 0  -0.8666666666666667 -0.6666666666666667 0  -0.8 -0.6666666666666667 0  -0.7333333333333334 -0.6666666666666667 0  -0.6666666666666667 -0.6666666666666667 0  -0.6 -0.6666666666666667 0  -0.5333333333333333 -0.6666666666666667 0  -0.4666666666666667 -0.6666666666666667 0  -0.4 -0.6666666666666667 0  -0.3333333333333334 -0.6666666666666667 0  -0.2666666666666667 -0.6666666666666667 0  -0.2 -0.6666666666666667 0  -0.1333333333333333 -0.6666666666666667 0  -0.06666666666666665 -0.6666666666666667 0  0 -0.6666666666666667 0  0.06666666666666665 -0.6666666666666667 0  0.1333333333333333 -0.6666666666666667 0  0.2 -0.6666666666666667 0  0.2666666666666666 -0.6666666666666667 0  0.3333333333333333 -0.6666666666666667 0  0.3999999999999999 -0.6666666666666667 0  0.4666666666666666 -0.6666666666666667 0  0.5333333333333334 -0.6666666666666667 0  0.6000000000000001 -0.6666666666666667 0  0.6666666666666667 -0.6666666666666667 0  0.7333333333333334 -0.6666666666666667 0  0.8 -0.6666666666666667 0  0.8666666666666667 -0.6666666666666667 0  0.9333333333333333 -0.6666666666666667 0  1 -0.6666666666666667 0  -1 -0.6 0  -0.9333333333333333 -0.6 0  -0.8666666666666667 -0.6 0  -0.8 -0.6 0  -0.7333333333333334 -0.6 0  -0.6666666666666667 -0.6 0  -0.6 -0.6 0  -0.5333333333333333 -0.6 0  -0.4666666666666667 -0.6 0  -0.4 -0.6 0  -0.3333333333333334 -0.6 0  -0.2666666666666667 -0.6 0  -0.2 -0.6 0  -0.1333333333333333 -0.6 0  -0.06666666666666665 -0.6 0  0 -0.6 0  0.06666666666666665 -0.6 0  0.1333333333333333 -0.6 0  0.2 -0.6 0  0.2666666666666666 -0.6 0  0.3333333333333333 -0.6 0  0.3999999999999999 -0.6 0  0.4666666666666666 -0.6 0  0.5333333333333334 -0.6 0  0.6000000000000001 -0.6 0  0.6666666666666667 -0.6 0  0.7333333333333334 -0.6 0  0.8 -0.6 0  0.8666666666666667 -0.6 0  0.9333333333333333 -0.6 0  1 -0.6 0  -1 -0.5333333333333333 0  -0.9333333333333333 -0.5333333333333333 0  -0.8666666666666667 -0.5333333333333333 0  -0.8 -0.5333333333333333 0  -0.7333333333333334 -0.5333333333333333 0  -0.6666666666666667 -0.5333333333333333 0  -0.6 -0.5333333333333333 0  -0.5333333333333333 -0.5333333333333333 0  -0.4666666666666667 -0.5333333333333333 0  -0.4 -0.5333333333333333 0  -0.3333333333333334 -0.5333333333333333 0  -0.2666666666666667 -0.5333333333333333 0  -0.2 -0.5333333333333333 0  -0.1333333333333333 -0.5333333333333333 0  -0.06666666666666665 -0.5333333333333333 0  0 -0.5333333333333333 0  0.06666666666666665 -0.5333333333333333 0  0.1333333333333333 -0.5333333333333333 0  0.2 -0.5333333333333333 0  0.2666666666666666 -0.5333333333333333 0  0.3333333333333333 -0.5333333333333333 0  0.3999999999999999 -0.5333333333333333 0  0.4666666666666666 -0.5333333333333333 0  0.5333333333333334 -0.5333333333333333 0  0.6000000000000001 -0.5333333333333333 0  0.6666666666666667 -0.5333333333333333 0  0.7333333333333334 -0.5333333333333333 0  0.8 -0.5333333333333333 0  0.8666666666666667 -0.5333333333333333 0  0.9333333333333333 -0.5333333333333333 0  1 -0.5333333333333333 0  -1 -0.4666666666666667 0  -0.9333333333333333 -0.4666666666666667 0  -0.8666666666666667 -0.4666666666666667 0  -0.8 -0.4666666666666667 0  -0.7333333333333334 -0.4666666666666667 0  -0.6666666666666667 -0.4666666666666667 0  -0.6 -0.4666666666666667 0  -0.5333333333333333 -0.4666666666666667 0  -0.4666666666666667 -0.4666666666666667 0  -0.4 -0.4666666666666667 0  -0.3333333333333334 -0.4666666666666667 0  -0.2666666666666667 -0.4666666666666667 0  -0.2 -0.4666666666666667 0  -0.1333333333333333 -0.4666666666666667 0  -0.06666666666666665 -0.4666666666666667 0  0 -0.4666666666666667 0  0.06666666666666665 -0.4666666666666667 0  0.1333333333333333 -0.4666666666666667 0  0.2 -0.4666666666666667 0  0.2666666666666666 -0.4666666666666667 0  0.3333333333333333 -0.4666666666666667 0  0.3999999999999999 -0.4666666666666667 0  0.4666666666666666 -0.4666666666666667 0  0.5333333333333334 -0.4666666666666667 0  0.6000000000000001 -0.4666666666666667 0  0.6666666666666667 -0.4666666666666667 0  0.7333333333333334 -0.4666666666666667 0  0.8 -0.4666666666666667 0  0.8666666666666667 -0.4666666666666667 0  0.9333333333333333 -0.4666666666666667 0  1 -0.4666666666666667 0  -1 -0.4 0  -0.9333333333333333 -0.4 0  -0.8666666666666667 -0.4 0  -0.8 -0.4 0  -0.7333333333333334 -0.4 0  -0.6666666666666667 -0.4 0  -0.6 -0.4 0  -0.5333333333333333 -0.4 0  -0.4666666666666667 -0.4 0  -0.4 -0.4 0  -0.3333333333333334 -0.4 0  -0.2666666666666667 -0.4 0  -0.2 -0.4 0  -0.1333333333333333 -0.4 0  -0.06666666666666665 -0.4 0  0 -0.4 0  0.06666666666666665 -0.4 0  0.1333333333333333 -0.4 0  0.2 -0.4 0  0.2666666666666666 -0.4 0  0.3333333333333333 -0.4 0  0.3999999999999999 -0.4 0  0.4666666666666666 -0.4 0  0.5333333333333334 -0.4 0  0.6000000000000001 -0.4 0  0.6666666666666667 -0.4 0  0.7333333333333334 -0.4 0 
[...]
<PointData  Scalars="f_24"> 
<DataArray  type="Float64"  Name="f_24"  format="ascii">0.0000000000000000e+00  0.0000000000000000e+00  0.0000000000000000e+00  0.0000000000000000e+00  0.0000000000000000e+00  0.0000000000000000e+00  0.0000000000000000e+00  0.0000000000000000e+00  0.0000000000000000e+00  0.0000000000000000e+00  0.0000000000000000e+00  0.0000000000000000e+00  0.0000000000000000e+00  0.0000000000000000e+00  0.0000000000000000e+00  0.0000000000000000e+00  0.0000000000000000e+00  0.0000000000000000e+00  0.0000000000000000e+00  0.0000000000000000e+00  0.0000000000000000e+00  0.0000000000000000e+00  0.0000000000000000e+00  0.0000000000000000e+00  0.0000000000000000e+00  6.8919003681144848e-08  0.0000000000000000e+00  -7.3424886821584498e-08  0.0000000000000000e+00  0.0000000000000000e+00  1.2969347935522993e+01  0.0000000000000000e+00  1.1819739716905745e+07  1.2897087039401846e+07  1.8769097768601157e+07  1.3493167151259862e+07  1.8494753674622960e+07  1.0511873811548773e+07  1.7566428841404725e+07  7.4174997062554704e+06  1.6410192339515394e+07  5.2655568478035955e+06  1.5995324870562920e+07  3.1196907349228938e+06  1.6664194897136124e+07  1.5173213749532492e+06  1.7426603605091032e+07  9.5899767423659132e+05  1.8534561688504543e+07  9.0705106511533796e+05  2.0328828055034515e+07  1.6153880795253636e+06  2.3668081686088566e+07  9.5858755278556340e+05  3.4733913968915939e+07  -5.7034440940330205e+06  6.0726798474555939e+07  -1.8405239085660815e+07  1.0073438285635786e+08  -1.1306339358113226e+07  2.1921533925829235e+08  1.1324658490351405e+01  0.0000000000000000e+00  1.2897087018895628e+07  1.4151162515238587e+07  5.6299429612308452e+06  2.4415671759482445e+06  -3.9548437831809479e+06  -3.6433050393683203e+06  -8.5140067422927711e+06  -6.8516152139082439e+06  -9.4091786321496405e+06  -7.9362567454409460e+06  -1.0295800766536007e+07  -7.5520668555201432e+06  -1.0645855593908211e+07  -8.0670114443357736e+06  -1.0063299246068200e+07  -8.8316786883076783e+06  -1.0194231317944232e+07  -9.2131391132016666e+06  -1.0370418299576379e+07  -9.9532979449161496e+06  -1.1869347186100472e+07  -7.4111593620756110e+06  -2.0429490360467207e+07  -1.2675555413376417e+06  -3.3224472549750876e+07  3.0041747100051022e+06  -2.8720647529016331e+07  -1.7715972987910505e+07  -1.1306347521989098e+07  9.8415895366867314e+00  6.8012720542071347e-09  1.8769097759742022e+07  5.6299429647956956e+06  1.9572498838593296e+06  -4.6585254061842253e+06  1.2878342992999805e+06  -4.7549771989415139e+06  3.8753316717574676e+06  -2.1839297287517525e+06  6.8923925121081555e+06  -2.1663120045733079e+06  1.0137501598640770e+07  -2.4649286215992803e+06  1.1345290684111075e+07  -2.1682227105751215e+06  1.2435916913447479e+07  -3.2947518761657216e+06  1.4314494116411703e+07  -4.4232744271690100e+06  1.4821021302330771e+07  -5.4922521852919683e+06  1.7901205573235065e+07  -1.1313387799592288e+07  2.9820100262655247e+07  -1.8848926733163051e+07  4.6076682853701413e+07  -3.0403167988730021e+07  5.5133675966389686e+07  -2.8720646967521977e+07  1.0073438444225846e+08  8.5091892756757108e+00  0.0000000000000000e+00  1.3493167087623725e+07  2.4415671957097636e+06  -4.6585254121469716e+06  5.0620239069747546e+05  -4.6498151202178206e+06  4.4224796284389950e+05  -3.3777629686921639e+06  -1.1434666553755431e+05  -5.4127754566423828e+06  -2.5397310336747036e+04  -6.3927736606602827e+06  -1.6834486957021432e+06  -6.0265648523806855e+06  -2.5469188773473827e+06  -6.8765496588282483e+06  -2.2931148125038724e+06  -6.9673987200451987e+06  -3.6990700740593094e+06  -5.3846947289178511e+06  -3.8354408484637435e+06  -9.1863054324801657e+06  3.5205445322375401e+05  -2.1465437046031680e+07  3.3345651812972026e+06  -3.0887549539951745e+07  1.2032733835714336e+07  -3.0403176577688895e+07  3.0041805068444572e+06  -1.8405245920495871e+07  7.3168898051648847e+00  -1.2878363029486042e-08  1.8494753656520862e+07  -3.9548437455811249e+06  1.2878343058378312e+06  -4.6498151239584191e+06  1.3312212977950138e+06  -2.9746902255511456e+06  3.1623644221801683e+06  -4.3734173729479965e+06  6.1566540836384008e+06  -3.9879138164958647e+06  7.0201595950829089e+06  -3.1974189646247891e+06  8.8950929065684993e+06  -4.4305495757220443e+06  1.1259978872472869e+07  -5.2039683738634512e+06  1.1536794582364513e+07  -4.8465449942496335e+06  1.2037881774949290e+07  -8.2486404698132724e+06  1.9858680493606046e+07  -1.4051016078214388e+07  3.2467245874421880e+07  -2.0447193792152438e+07  3.7869229350481138e+07  -3.0887559915421765e+07  4.6076692626811914e+07  -3.3224473607445128e+07  6.0726797932726629e+07  6.2545080707576171e+00  0.0000000000000000e+00  1.0511873719009984e+07  -3.6433049830668722e+06  -4.7549772517582104e+06  4.4224797458025027e+05  -2.9746902303831205e+06  2.5211890054788715e+06  -4.5206983345315354e+06  3.6118366434985162e+06  -4.3040298018328492e+06  1.8997250241343006e+06  -4.3997182997218333e+06  1.8087315919819921e+06  -5.9297383330279458e+06  1.7239258000431065e+06  -5.9887889410264492e+06  2.0502744768575628e+05  -4.6183929728453904e+06  -1.0431196765396292e+06  -5.0352642868946651e+06  1.2510971326565631e+06  -1.2041208434330812e+07  2.5495525985026299e+06  -1.8296185240853351e+07  6.0698180485911872e+06  -2.0447218650844228e+07  3.3345843896302059e+06  -1.8848934048854157e+07  -1.2675563705847794e+06  -5.7034464201434432e+06  5.3122449143902193e+00  -1.2476425418171884e-09  1.7566428831670489e+07  -8.5140066866949070e+06  3.8753316664817519e+06  -3.3777629475310175e+06  3.1623644267952428e+06  -4.5206983397094216e+06  4.2627686080621760e+06  -4.0394931743757110e+06  4.1521997468077391e+06  -4.1584425907451729e+06  6.5785379131685775e+06  -5.2777851707290364e+06  8.0656837785809981e+06  -5.0866111010379270e+06  8.7313989560561161e+06  -5.1544525576448301e+06  9.4024723489524033e+06  -6.0831712276446121e+06  1.2172191115757221e+07  -9.6894866116174106e+06  2.0431132168960888e+07  -1.2626766631200990e+07  2.4980658223744761e+07  -1.8296228422477648e+07  3.2467281464957166e+07  -2.1465444211490884e+07  2.9820093926442105e+07  -2.0429483501784109e+07  3.4733912863680370e+07  4.4806855501539369e+00  0.0000000000000000e+00  7.4174995839346536e+06  -6.8516151343516018e+06  -2.1839298156349454e+06  -1.1434663416487612e+05  -4.3734174204418324e+06  3.6118366637414643e+06  -4.0394931829024870e+06  3.5513042940179720e+06  -4.3280069113196870e+06  4.7510089606164088e+06  -5.4128779157962091e+06  3.6866333156896969e+06  -5.1340030914087957e+06  2.9759450320389909e+06  -5.6732901781264357e+06  2.5199737044291301e+06  -4.8828661058841329e+06  1.5559070882904362e+06  -6.3599398809633180e+06  2.7938347720597675e+06  -1.1507332486856945e+07  3.8425184551277747e+06  -1.2626847110386154e+07  2.5496173093235646e+06  -1.4051030385002675e+07  3.5203922051176243e+05  -1.1313376189115394e+07  -7.4111606669995766e+06  9.5858283288308943e+05  3.7507994691158957e+00  5.5146935082834045e-08  1.6410192340101976e+07  -9.4091785509365145e+06  6.8923924938248452e+06  -5.4127754264493380e+06  6.1566541047905050e+06  -4.3040297977127330e+06  4.1521997532771481e+06  -4.3280069158468032e+06  5.3825193940991862e+06  -5.3210642639378896e+06  5.1882926954103978e+06  -4.9185111456757346e+06  6.9756710322988052e+06  -6.1998825380016202e+06  8.3157335948806005e+06  -5.6674458969159508e+06  7.4226150277383272e+06  -5.7485105481370641e+06  1.1639203908687783e+07  -8.9488626514540110e+06  1.6681269805274334e+07  -1.1507470064395960e+07  2.0431245168123562e+07  -1.2041228278622234e+07  1.9858647427521359e+07  -9.1862761917853300e+06  1.7901200715948589e+07  -1.1869351877577595e+07  2.3668084779550519e+07  3.1139404348288995e+00  0.0000000000000000e+00  5.2655567011546027e+06  -7.9362566499117035e+06  -2.1663121461258670e+06  -2.5397230234396666e+04  -3.9879139102524077e+06  1.8997250550441805e+06  -4.1584426330129039e+06  4.7510089847047599e+06  -5.3210642782109147e+06  4.5166830610042587e+06  -4.8408709863749733e+06  5.7051347134019481e+06  -6.6016857821933264e+06  4.9458057452310259e+06  -5.2864704096416403e+06  2.4546042636636524e+06  -3.6794528557735351e+06  2.9635234881394161e+06  -8.4444018086074423e+06  4.7165020862003947e+06  -8.9490914397250284e+06  2.7940241308286316e+06  -9.6895181513659805e+06  1.2510331672213522e+06  -8.2485861874817498e+06  -3.8354498894249746e+06  -5.4922670396984322e+06  -9.9532877659850828e+06  1.6153849746583416e+06  2.5618465057823210e+00  -3.9598199541539497e-09  1.5995324885480056e+07  -1.0295800678982178e+07  1.0137501599886740e+07  -6.3927736213201815e+06  7.0201596050046599e+06  -4.3997182764926404e+06  6.5785379440158587e+06  -5.4128779296378018e+06  5.1882927115079341e+06  -4.8408709919480253e+06  6.4084460602419879e+06  -6.9386153644194091e+06  6.1628131682943543e+06  -4.9289770487038707e+06  5.8286555697713736e+06  -4.5859951075165607e+06  6.7641439380716244e+06  -7.2981254900078643e+06  1.2172204936405117e+07  -8.4447571945538968e+06  1.1639504638115125e+07  -6.3599832967664637e+06  1.2172074875502544e+07  -5.0351634956170525e+06  1.2037865060449509e+07  -5.3847217354018297e+06  1.4821041933163447e+07  -1.0370419454944069e+07  2.0328824566957690e+07  2.0866399905003603e+00  0.0000000000000000e+00  3.1196905447594668e+06  -7.5520667219327083e+06  -2.4649288250667886e+06  -1.6834485927194706e+06  -3.1974190956116915e+06  1.8087316659191423e+06  -5.2777852811403861e+06  3.6866333649868150e+06  -4.9185111938506039e+06  5.7051347443787940e+06  -6.9386153900602078e+06  5.4723837742271964e+06  -4.3088308306770939e+06  4.8382356019472284e+06  -5.7683514950965587e+06  4.1379349931346425e+06  -5.4042317775640590e+06  5.0133461315462980e+06  -7.2986428434250914e+06  2.9639718765999465e+06  -5.7485692509712046e+06  1.5557106234843398e+06  -6.0830016835578410e+06  -1.0431462173438655e+06  -4.8465986022589207e+06  -3.6990291971285427e+06  -4.4232790482269889e+06  -9.2131486521558408e+06  9.0705390642538026e+05  1.6808274924437798e+00  1.1413212839938322e-05  1.6664194944696112e+07  -1.0645855503089057e+07  1.1345290688995680e+07  -6.0265647830050690e+06  8.8950929290941898e+06  -5.9297383268895131e+06  8.0656838322101114e+06  -5.1340030932008447e+06  6.9756710808307612e+06  -6.6016858246802595e+06  6.1628132093842421e+06  -4.3088308399334345e+06  5.5154581794614084e+06  -7.2397964860734958e+06  6.2443964312249320e+06  -3.7495733093867451e+06  5.3172176792350737e+06  -5.4049245264275353e+06  6.7647643810358010e+06  -3.6795242496717237e+06  7.4223067130700927e+06  -4.8825968190394901e+06  9.4024336836931910e+06  -4.6184870268368870e+06  1.1536867954245785e+07  -6.9674038713671565e+06  1.4314471736343384e+07  -1.0194218583698079e+07  1.8534562046408072e+07  1.3372998875590318e+00  0.0000000000000000e+00  1.5173211208114917e+06  -8.0670112821300589e+06  -2.1682229643030553e+06  -2.5469187374685155e+06  -4.4305497952014543e+06  1.7239259379339595e+06  -5.0866112697826112e+06  2.9759451264371024e+06  -6.1998826822016872e+06  4.9458058368898397e+06  -4.9289771185611235e+06  4.8382356383438576e+06  -7.2397965329181757e+06  6.2189308778335657e+06  -2.2740163899365636e+06  6.9968907129340502e+05  -3.7504212704854007e+06  4.1387240893102693e+06  -4.5860769845289756e+06  2.4541602763920058e+06  -5.6670532696081111e+06  2.5199238500388148e+06  -5.1546106743634185e+06  2.0515099320219000e+05  -5.2039771782646822e+06  -2.2931574591236212e+06  -3.2947278832461336e+06  -8.8316763625506181e+06  9.5899012917802494e+05  1.0493323287684382e+00  -3.7488288532471349e-09  1.7426603685238063e+07  -1.0063299126801176e+07  1.2435916931823542e+07  -6.8765496002498372e+06  1.1259978948512288e+07  -5.9887889438974131e+06  8.7313990355046131e+06  -5.6732902164044725e+06  8.3157337155607799e+06  -5.2864704702284196e+06  5.8286556591357347e+06  -5.7683515977351489e+06  6.2443965658944370e+06  -2.2740164467208213e+06  -2.3257412451134465e+05  -2.2749561028412534e+06  6.2453112238999633e+06  -5.7684385613589250e+06  5.8280741408457896e+06  -5.2859435685244733e+06  8.3156758293936141e+06  -5.6735321452545775e+06  8.7315899939458091e+06  -5.9887979643737869e+06  1.1259903137312228e+07  -6.8765038259714451e+06  1.2435921322402986e+07  -1.0063315594912732e+07  1.7426609205025706e+07  8.1058424597018708e-01  0.0000000000000000e+00  9.5899733821047645e+05  -8.8316784828257170e+06  -3.2947522400249466e+06  -2.2931145802952466e+06  -5.2039687064843588e+06  2.0502764823231497e+05  -5.1544528345846925e+06  2.5199739134354461e+06  -5.6674461678629592e+06  2.4546044421499725e+06  -4.5859953391171033e+06  4.1379352017338895e+06  -3.7495734736384731e+06  6.9968907125451020e+05  -2.2749560460389913e+06  6.2198923825800726e+06  -7.2398856874460177e+06  4.8375493781836573e+06  -4.9283342974923458e+06  4.9457452274981141e+06  -6.2002214666904025e+06  2.9762158555151862e+06  -5.0866188984531583e+06  1.7238033737607310e+06  -4.4304751770548299e+06  -2.5469094362447988e+06  -2.1682570154443518e+06  -8.0669975937624956e+06  1.5173229973678156e+06  6.1509934603833494e-01  -1.5406718191165367e-08  1.8534561814601984e+07  -1.0194231188329197e+07  1.4314494204992739e+07  -6.9673986930607501e+06  1.1536794713674273e+07  -4.6183930037824651e+06  9.4024725283332989e+06  -4.8828662269478720e+06  7.4226152293045651e+06  -3.6794529672575505e+06  6.7641441248544483e+06  -5.4042318734960314e+06  5.3172176791528482e+06  -3.7504211061278931e+06  6.2453110892441720e+06  -7.2398856406025216e+06  5.5147324526152546e+06  -4.3081195829822449e+06  6.1627533356477190e+06  -6.6021119295755969e+06  6.9760197723738579e+06  -5.1340041564842165e+06  8.0655026216416666e+06  -5.9296255527714500e+06  8.8951097810335029e+06  -6.0266223625798970e+06  1.1345314966471247e+07  -1.0645847353335205e+07  1.6664185902038300e+07  4.5730561249974477e-01  0.0000000000000000e+00  9.0705057862945937e+05  -9.2131387960002832e+06  -4.4232749710501209e+06  -3.6990697398015121e+06  -4.8465454591478268e+06  -1.0431193687876625e+06  -6.0831716597100580e+06  1.5559073707378476e+06  -5.7485108594044372e+06  2.9635236446123342e+06  -7.2981256765927449e+06  5.0133461314919852e+06  -5.4049244303389601e+06  4.1387238805803875e+06  -5.7684384587815590e+06  4.8375493417654913e+06  -4.3081195737294145e+06  5.4723247515830528e+06  -6.9390945593773564e+06  5.7055412690699240e+06  -4.9185040362143507e+06  3.6863918018881693e+06  -5.2776325777225960e+06  1.8087600923979154e+06  -3.1975095112686846e+06  -1.6834096586997188e+06  -2.4649134486998264e+06  -7.5520882446977850e+06  3.1196948770035808e+06  3.3201530714938871e-01  0.0000000000000000e+00  2.0328828269700639e+07  -1.0370418157202680e+07  1.4821021451785779e+07  -5.3846946828450346e+06  1.2037881949494937e+07  -5.0352643224443877e+06  1.2172191309589801e+07  -6.3599398950375374e+06  1.1639203988143541e+07  -8.4444017450004425e+06  1.2172204936276885e+07  -7.2986426567874048e+06  6.7647641941853380e+06  -4.5860767527608881e+06  5.8280740516167590e+06  -4.9283342275691042e+06  6.1627532945897374e+06  -6.9390945337320259e+06  6.4088740050330590e+06  -4.8408574085295573e+06  5.1880045332238572e+06  -5.4126902216751706e+06  6.5785798592979414e+06  -4.3998445827897051e+06  7.0202147987316232e+06  -6.3927462213948676e+06  1.0137462713033155e+07  -1.0295790277307762e+07  1.5995330785003049e+07  2.3442496681974348e-01  0.0000000000000000e+00  1.6153873551358746e+06  -9.9532975102663729e+06  -5.4922528920973418e+06  -3.8354404764047056e+06  -8.2486410188269690e+06  1.2510974195824745e+06  -9.6894869899772443e+06  2.7938348764542732e+06  -8.9488628264393136e+06  4.7165020857107053e+06  -8.4447572576043364e+06  2.9639717201133687e+06  -3.6795241382733807e+06  2.4541600976502351e+06  -5.2859435081755668e+06  4.9457451356872572e+06  -6.6021118871682826e+06  5.7055412380563915e+06  -4.8408574029591912e+06  4.5163772490908401e+06  -5.3208565534990123e+06  4.7510624647864727e+06  -4.1586020497655789e+06  1.8997959405011989e+06  -3.9878735994055560e+06  -2.5455962639723955e+04  -2.1662972995752874e+06  -7.9362415866071386e+06  5.2655456183947716e+06  1.6011540661139506e-01  0.0000000000000000e+00  2.3668081953662854e+07  -1.1869346886104504e+07  1.7901205692737482e+07  -9.1863052748101745e+06  1.9858680651019186e+07  -1.2041208344121622e+07  2.0431132251297943e+07  -1.1507332323046075e+07  1.6681269805058641e+07  -8.9490912638441846e+06  1.1639504557846298e+07  -5.7485689396601534e+06  7.4223065118089914e+06  -5.6670529981975108e+06  8.3156757091163471e+06  -6.2002213221861199e+06  6.9760197240213649e+06  -4.9185039879425894e+06  5.1880045171643244e+06  -5.3208565392224789e+06  5.3825774573523775e+06  -4.3281858784032501e+06  4.1522817702389611e+06  -4.3039763668619338e+06  6.1565751447521318e+06  -5.4127549469887279e+06  6.8924179510237426e+06  -9.4092004548870437e+06  1.6410194921711098e+07  1.0505186851955731e-01  0.0000000000000000e+00  9.5858654820924613e+05  -7.4111588504682789e+06  -1.1313388675238688e+07  3.5205481501606951e+05  -1.4051016671694199e+07  2.5495527744781883e+06  -1.2626766951868899e+07  3.8425184542086986e+06  -1.1507470227857312e+07  2.7940240260581616e+06  -6.3599832817447493e+06  1.5557103407868005e+06  -4.8825966986349998e+06  2.5199236402219194e+06  -5.6735321077221064e+06  2.9762157605523751e+06  -5.1340041550738886e+06  3.6863917523724446e+06  -5.4126902079464355e+06  4.7510624406587873e+06  -4.3281858738795146e+06  3.5513903676178227e+06  -4.0394319712369791e+06  3.6117426190863661e+06  -4.3733935197271630e+06  -1.1430985950965321e+05  -2.1839644906945950e+06  -6.8516109670477994e+06  7.4175073283005329e+06  6.5583270548027428e-02  0.0000000000000000e+00  3.4733914162732661e+07  -2.0429489782754034e+07  2.9820100421783596e+07  -2.1465436807091236e+07  3.2467246049780030e+07  -1.8296184986935787e+07  2.4980658221719369e+07  -1.2626846785898469e+07  2.0431245084830225e+07  -9.6895177733982634e+06  1.2172074680891195e+07  -6.0830012508140048e+06  9.4024335056334566e+06  -5.1546103959624302e+06  8.7315899158415496e+06  -5.0866187286162917e+06  8.0655025687702885e+06  -5.2776324668290922e+06  6.5785798287188178e+06  -4.1586020073677297e+06  4.1522817638109843e+06  -4.0394319627062762e+06  4.2626688934883745e+06  -4.5206722217811476e+06  3.1624096940298784e+06  -3.3778072673987290e+06  3.8753356078894869e+06  -8.5139888331367243e+06  1.7566419405085459e+07  3.8443709127395899e-02  0.0000000000000000e+00  -5.7034455838671280e+06  -1.2675547882869134e+06  -1.8848927907645639e+07  3.3345654917928986e+06  -2.0447194422915116e+07  6.0698180496686827e+06  -1.8296228676979199e+07  2.5496171287482297e+06  -1.2041228366293717e+07  1.2510328815558013e+06  -5.0351634597224602e+06  -1.0431465267222318e+06  -4.6184869983880697e+06  2.0515078993646769e+05  -5.9887979639471378e+06  1.7238032338369682e+06  -5.9296255604030602e+06  1.8087600174490630e+06  -4.3998446066359803e+06  1.8997959092596148e+06  -4.3039763711334793e+06  3.6117425987983085e+06  -4.5206722166075204e+06  2.5212375337305991e+06  -2.9747406495449590e+06  4.4225180144076992e+05  -4.7549521466261055e+06  -3.6433213462922359e+06  1.0511872730382824e+07  2.0750956696836770e-02  0.0000000000000000e+00  6.0726798480817869e+07  -3.3224471646820117e+07  4.6076683137960598e+07  -3.0887549019770581e+07  3.7869229339128323e+07  -2.0447218003044866e+07  3.2467281295582373e+07  -1.4051029790503457e+07  1.9858647264238376e+07  -8.2485856406985037e+06  1.2037864886802964e+07  -4.8465981335384669e+06  1.1536867828048754e+07  -5.2039768403321272e+06  1.1259903066086346e+07  -4.4304749536193656e+06  8.8951097615260109e+06  -3.1975093781541931e+06  7.0202147901903950e+06  -3.9878735048399502e+06  6.1565751240184689e+06  -4.3733934720529560e+06  3.1624096894653533e+06  -2.9747406447084532e+06  1.3312249657963375e+06  -4.6497851015354022e+06  1.2878126257783005e+06  -3.9548451024120543e+06  1.8494761589041837e+07  1.0007212913212177e-02  0.0000000000000000e+00  -1.8405241643535849e+07  3.0041757347771488e+06  -3.0403169256195262e+07  1.2032733819913816e+07  -3.0887560493620370e+07  3.3345840449536084e+06  -2.14654