<?xml version="1.0"?>
<VTKFile type="UnstructuredGrid"  version="0.1"  >
<UnstructuredGrid>
<Piece  NumberOfPoints="961" NumberOfCells="1800">
<Points>
<DataArray  type="Float64"  NumberOfComponents="3"  format="ascii">-1 -1 0  -0.9333333333333333 -1 0  -0.8666666666666667 -1 0  -0.8 -1 0  -0.7333333333333334 -1 0  -0.6666666666666667 -1 0  -0.6 -1 0  -0.5333333333333333 -1 0  -0.4666666666666667 -1 0  -0.4 -1 0  -0.3333333333333334 -1 0  -0.2666666666666667 -1 0  -0.2 -1 0  -0.1333333333333333 -1 0  -0.06666666666666665 -1 0  0 -1 0  0.06666666666666665 -1 0  0.1333333333333333 -1 0  0.2 -1 0  0.2666666666666666 -1 0  0.3333333333333333 -1 0  0.3999999999999999 -1 0  0.4666666666666666 -1 0  0.5333333333333334 -1 0  0.6000000000000001 -1 0  0.6666666666666667 -1 0  0.7333333333333334 -1 0  0.8 -1 0  0.8666666666666667 -1 0  0.9333333333333333 -1 0  1 -1 0  -1 -0.9333333333333333 0  -0.9333333333333333 -0.9333333333333333 0  -0.8666666666666667 -0.9333333333333333 0  -0.8 -0.9333333333333333 0  -0.7333333333333334 -0.9333333333333333 0  -0.6666666666666667 -0.9333333333333333 0  -0.6 -0.9333333333333333 0  -0.5333333333333333 -0.9333333333333333 0  -0.4666666666666667 -0.9333333333333333 0  -0.4 -0.9333333333333333 0  -0.3333333333333334 -0.9333333333333333 0  -0.2666666666666667 -0.9333333333333333 0  -0.2 -0.9333333333333333 0  -0.1333333333333333 -0.9333333333333333 0  -0.06666666666666665 -0.9333333333333333 0  0 -0.9333333333333333 0  0.06666666666666665 -0.9333333333333333 0  0.1333333333333333 -0.9333333333333333 0  0.2 -0.9333333333333333 0  0.2666666666666666 -0.9333333333333333 0  0.3333333333333333 -0.9333333333333333 0  0.3999999999999999 -0.9333333333333333 0  0.4666666666666666 -0.9333333333333333 0  0.5333333333333334 -0.9333333333333333 0  0.6000000000000001 -0.9333333333333333 0  0.6666666666666667 -0.9333333333333333 0  0.7333333333333334 -0.9333333333333333 0  0.8 -0.9333333333333333 0  0.8666666666666667 -0.9333333333333333 0  0.9333333333333333 -0.9333333333333333 0  1 -0.9333333333333333 0  -1 -0.8666666666666667 0  -0.9333333333333333 -0.8666666666666667 0  -0.8666666666666667 -0.8666666666666667 0  -0.8 -0.8666666666666667 0  -0.7333333333333334 -0.8666666666666667 0  -0.6666666666666667 -0.8666666666666667 0  -0.6 -0.8666666666666667 0  -0.5333333333333333 -0.8666666666666667 0  -0.4666666666666667 -0.8666666666666667 0  -0.4 -0.8666666666666667 0  -0.3333333333333334 -0.8666666666666667 0  -0.2666666666666667 -0.8666666666666667 0  -0.2 -0.8666666666666667 0  -0.1333333333333333 -0.8666666666666667 0  -0.06666666666666665 -0.8666666666666667 0  0 -0.8666666666666667 0  0.06666666666666665 -0.8666666666666667 0  0.1333333333333333 -0.8666666666666667 0  0.2 -0.8666666666666667 0  0.2666666666666666 -0.8666666666666667 0  0.3333333333333333 -0.8666666666666667 0  0.3999999999999999 -0.8666666666666667 0  0.4666666666666666 -0.8666666666666667 0  0.5333333333333334 -0.8666666666666667 0  0.6000000000000001 -0.8666666666666667 0  0.6666666666666667 -0.8666666666666667 0  0.7333333333333334 -0.8666666666666667 0  0.8 -0.8666666666666667 0  0.8666666666666667 -0.8666666666666667 0  0.9333333333333333 -0.8666666666666667 0  1 -0.8666666666666667 0  -1 -0.8 0  -0.9333333333333333 -0.8 0  -0.8666666666666667 -0.8 0  -0.8 -0.8 0  -0.7333333333333334 -0.8 0  -0.6666666666666667 -0.8 0  -0.6 -0.8 0  -0.5333333333333333 -0.8 0  -0.4666666666666667 -0.8 0  -0.4 -0.8 0  -0.3333333333333334 -0.8 0  -0.2666666666666667 -0.8 0  -0.2 -0.8 0  -0.1333333333333333 -0.8 0  -0.06666666666666665 -0.8 0  0 -0.8 0  0.06666666666666665 -0.8 0  0.1333333333333333 -0.8 0  0.2 -0.8 0  0.2666666666666666 -0.8 0  0.3333333333333333 -0.8 0  0.3999999999999999 -0.8 0  0.4666666666666666 -0.8 0  0.5333333333333334 -0.8 0  0.6000000000000001 -0.8 0  0.6666666666666667 -0.8 0  0.7333333333333334 -0.8 0  0.8 -0.8 0  0.8666666666666667 -0.8 0  0.9333333333333333 -0.8 0  1 -0.8 0  -1 -0.7333333333333334 0  -0.9333333333333333 -0.7333333333333334 0  -0.8666666666666667 -0.7333333333333334 0  -0.8 -0.7333333333333334 0  -0.7333333333333334 -0.7333333333333334 0  -0.6666666666666667 -0.7333333333333334 0  -0.6 -0.7333333333333334 0  -0.5333333333333333 -0.7333333333333334 0  -0.4666666666666667 -0.7333333333333334 0  -0.4 -0.7333333333333334 0  -0.3333333333333334 -0.7333333333333334 0  -0.2666666666666667 -0.7333333333333334 0  -0.2 -0.7333333333333334 0  -0.1333333333333333 -0.7333333333333334 0  -0.06666666666666665 -0.7333333333333334 0  0 -0.7333333333333334 0  0.06666666666666665 -0.7333333333333334 0  0.1333333333333333 -0.7333333333333334 0  0.2 -0.7333333333333334 0  0.2666666666666666 -0.7333333333333334 0  0.3333333333333333 -0.7333333333333334 0  0.3999999999999999 -0.7333333333333334 0  0.4666666666666666 -0.7333333333333334 0  0.5333333333333334 -0.7333333333333334 0  0.6000000000000001 -0.7333333333333334 0  0.6666666666666667 -0.7333333333333334 0  0.7333333333333334 -0.7333333333333334 0  0.8 -0.7333333333333334 0  0.8666666666666667 -0.7333333333333334 0  0.9333333333333333 -0.7333333333333334 0  1 -0.7333333333333334 0  -1 -0.6666666666666667 0  -0.9333333333333333 -0.6666666666666667 0  -0.8666666666666667 -0.6666666666666667 0  -0.8 -0.6666666666666667 0  -0.7333333333333334 -0.6666666666666667 0  -0.6666666666666667 -0.6666666666666667 0  -0.6 -0.6666666666666667 0  -0.5333333333333333 -0.6666666666666667 0  -0.4666666666666667 -0.6666666666666667 0  -0.4 -0.6666666666666667 0  -0.3333333333333334 -0.6666666666666667 0  -0.2666666666666667 -0.6666666666666667 0  -0.2 -0.6666666666666667 0  -0.1333333333333333 -0.6666666666666667 0  -0.06666666666666665 -0.6666666666666667 0  0 -0.6666666666666667 0  0.06666666666666665 -0.6666666666666667 0  0.1333333333333333 -0.6666666666666667 0  0.2 -0.6666666666666667 0  0.2666666666666666 -0.6666666666666667 0  0.3333333333333333 -0.6666666666666667 0  0.3999999999999999 -0.6666666666666667 0  0.4666666666666666 -0.6666666666666667 0  0.5333333333333334 -0.6666666666666667 0  0.6000000000000001 -0.6666666666666667 0  0.6666666666666667 -0.6666666666666667 0  0.7333333333333334 -0.6666666666666667 0  0.8 -0.6666666666666667 0  0.8666666666666667 -0.6666666666666667 0  0.9333333333333333 -0.6666666666666667 0  1 -0.6666666666666667 0  -1 -0.6 0  -0.9333333333333333 -0.6 0  -0.8666666666666667 -0.6 0  -0.8 -0.6 0  -0.7333333333333334 -0.6 0  -0.6666666666666667 -0.6 0  -0.6 -0.6 0  -0.5333333333333333 -0.6 0  -0.4666666666666667 -0.6 0  -0.4 -0.6 0  -0.3333333333333334 -0.6 0  -0.2666666666666667 -0.6 0  -0.2 -0.6 0  -0.1333333333333333 -0.6 0  -0.06666666666666665 -0.6 0  0 -0.6 0  0.06666666666666665 -0.6 0  0.1333333333333333 -0.6 0  0.2 -0.6 0  0.2666666666666666 -0.6 0  0.3333333333333333 -0.6 0  0.3999999999999999 -0.6 0  0.4666666666666666 -0.6 0  0.5333333333333334 -0.6 0  0.6000000000000001 -0.6 0  0.6666666666666667 -0.6 0  0.7333333333333334 -0.6 0  0.8 -0.6 0  0.8666666666666667 -0.6 0  0.9333333333333333 -0.6 0  1 -0.6 0  -1 -0.5333333333333333 0  -0.9333333333333333 -0.5333333333333333 0  -0.8666666666666667 -0.5333333333333333 0  -0.8 -0.5333333333333333 0  -0.7333333333333334 -0.5333333333333333 0  -0.6666666666666667 -0.5333333333333333 0  -0.6 -0.5333333333333333 0  -0.5333333333333333 -0.5333333333333333 0  -0.4666666666666667 -0.5333333333333333 0  -0.4 -0.5333333333333333 0  -0.3333333333333334 -0.5333333333333333 0  -0.2666666666666667 -0.5333333333333333 0  -0.2 -0.5333333333333333 0  -0.1333333333333333 -0.5333333333333333 0  -0.06666666666666665 -0.5333333333333333 0  0 -0.5333333333333333 0  0.06666666666666665 -0.5333333333333333 0  0.1333333333333333 -0.5333333333333333 0  0.2 -0.5333333333333333 0  0.2666666666666666 -0.5333333333333333 0  0.3333333333333333 -0.5333333333333333 0  0.3999999999999999 -0.5333333333333333 0  0.4666666666666666 -0.5333333333333333 0  0.5333333333333334 -0.5333333333333333 0  0.6000000000000001 -0.5333333333333333 0  0.6666666666666667 -0.5333333333333333 0  0.7333333333333334 -0.5333333333333333 0  0.8 -0.5333333333333333 0  0.8666666666666667 -0.5333333333333333 0  0.9333333333333333 -0.5333333333333333 0  1 -0.5333333333333333 0  -1 -0.4666666666666667 0  -0.9333333333333333 -0.4666666666666667 0  -0.8666666666666667 -0.4666666666666667 0  -0.8 -0.4666666666666667 0  -0.7333333333333334 -0.4666666666666667 0  -0.6666666666666667 -0.4666666666666667 0  -0.6 -0.4666666666666667 0  -0.5333333333333333 -0.4666666666666667 0  -0.4666666666666667 -0.4666666666666667 0  -0.4 -0.4666666666666667 0  -0.3333333333333334 -0.4666666666666667 0  -0.2666666666666667 -0.4666666666666667 0  -0.2 -0.4666666666666667 0  -0.1333333333333333 -0.4666666666666667 0  -0.06666666666666665 -0.4666666666666667 0  0 -0.4666666666666667 0  0.06666666666666665 -0.4666666666666667 0  0.1333333333333333 -0.4666666666666667 0  0.2 -0.4666666666666667 0  0.2666666666666666 -0.4666666666666667 0  0.3333333333333333 -0.4666666666666667 0  0.3999999999999999 -0.4666666666666667 0  0.4666666666666666 -0.4666666666666667 0  0.5333333333333334 -0.4666666666666667 0  0.6000000000000001 -0.4666666666666667 0  0.6666666666666667 -0.4666666666666667 0  0.7333333333333334 -0.4666666666666667 0  0.8 -0.4666666666666667 0  0.8666666666666667 -0.4666666666666667 0  0.9333333333333333 -0.4666666666666667 0  1 -0.4666666666666667 0  -1 -0.4 0  -0.9333333333333333 -0.4 0  -0.8666666666666667 -0.4 0  -0.8 -0.4 0  -0.7333333333333334 -0.4 0  -0.6666666666666667 -0.4 0  -0.6 -0.4 0  -0.5333333333333333 -0.4 0  -0.4666666666666667 -0.4 0  -0.4 -0.4 0  -0.3333333333333334 -0.4 0  -0.2666666666666667 -0.4 0  -0.2 -0.4 0  -0.1333333333333333 -0.4 0  -0.06666666666666665 -0.4 0  0 -0.4 0  0.06666666666666665 -0.4 0  0.1333333333333333 -0.4 0  0.2 -0.4 0  0.2666666666666666 -0.4 0  0.3333333333333333 -0.4 0  0.3999999999999999 -0.4 0  0.4666666666666666 -0.4 0  0.5333333333333334 -0.4 0  0.6000000000000001 -0.4 0  0.6666666666666667 -0.4 0  0.7333333333333334 -0.4 0 
[...]
<PointData  Scalars="f_24"> 
<DataArray  type="Float64"  Name="f_24"  format="ascii">0.0000000000000000e+00  0.0000000000000000e+00  0.0000000000000000e+00  0.0000000000000000e+00  0.0000000000000000e+00  0.0000000000000000e+00  0.0000000000000000e+00  0.0000000000000000e+00  0.0000000000000000e+00  0.0000000000000000e+00  0.0000000000000000e+00  0.0000000000000000e+00  0.0000000000000000e+00  0.0000000000000000e+00  0.0000000000000000e+00  0.0000000000000000e+00  0.0000000000000000e+00  0.0000000000000000e+00  0.0000000000000000e+00  0.0000000000000000e+00  0.0000000000000000e+00  0.0000000000000000e+00  0.0000000000000000e+00  0.0000000000000000e+00  0.0000000000000000e+00  -7.1281903538982306e-08  0.0000000000000000e+00  -3.6712443410792249e-08  0.0000000000000000e+00  0.0000000000000000e+00  1.0512749117040915e+01  0.0000000000000000e+00  9.6194611207566969e+06  1.0528917889565345e+07  1.5321433004868913e+07  1.1074074655154193e+07  1.5153486339224983e+07  8.7041956604502220e+06  1.4440278132353161e+07  6.2282202825324936e+06  1.3529049208247449e+07  4.5043051662254184e+06  1.3208416111890305e+07  2.7764216608089684e+06  1.3758674242261553e+07  1.4825908888646513e+06  1.4379051568308223e+07  1.0298409694731933e+06  1.5274472978279296e+07  9.8235827082098729e+05  1.6720545021763947e+07  1.5447674434172849e+06  1.9411603703665331e+07  9.9207787437945453e+05  2.8355910714485869e+07  -4.4395886364939306e+06  4.9387331123861656e+07  -1.4780839725930484e+07  8.1763924267134026e+07  -9.0875555703545101e+06  1.7773390099015725e+08  9.1795897632713768e+00  0.0000000000000000e+00  1.0528917872985017e+07  1.1609500643112276e+07  4.7516823683945490e+06  2.2003089580495078e+06  -2.9666867118984871e+06  -2.7091187808393654e+06  -6.6620052119422117e+06  -5.3258246974994838e+06  -7.4140418206231948e+06  -6.2364377030078229e+06  -8.1647856893219016e+06  -5.9543207814815249e+06  -8.4726425183328036e+06  -6.3889424225434139e+06  -8.0097191860588808e+06  -7.0096705601059133e+06  -8.1083577049060734e+06  -7.3035336416892381e+06  -8.2290065713680703e+06  -7.8762069870223217e+06  -9.4139804241539557e+06  -5.7859809321488943e+06  -1.6327647966099033e+07  -7.9035275657623657e+05  -2.6698323808544319e+07  2.6522134277646206e+06  -2.3093863393431809e+07  -1.4220387238580313e+07  -9.0875621879130732e+06  7.9774374347838002e+00  3.9674086982874951e-09  1.5321432997775946e+07  4.7516823713256158e+06  1.8184543853802725e+06  -3.5369877464197925e+06  1.2608233784399945e+06  -3.6789993122389531e+06  3.2649843112931075e+06  -1.7002929079286770e+06  5.6062011821323037e+06  -1.7808650108324825e+06  8.1561664884421509e+06  -2.0870294255678570e+06  9.0878817848047316e+06  -1.8775077345224859e+06  9.9566806593796406e+06  -2.7906635789014045e+06  1.1494661739079257e+07  -3.6747187847138108e+06  1.1951961532049170e+07  -4.4783032883904232e+06  1.4527308669880943e+07  -9.1048586543132477e+06  2.4289364940071523e+07  -1.5111697695680829e+07  3.7556832032194391e+07  -2.4414265584494513e+07  4.4916659340086870e+07  -2.3093862938327786e+07  8.1763925552560538e+07  6.8974148310775645e+00  0.0000000000000000e+00  1.1074074603703205e+07  2.2003089741455531e+06  -3.5369877512166449e+06  6.0963074059430603e+05  -3.6454003588052774e+06  3.9285996367035998e+05  -2.7897636103633451e+06  -2.1782040564036768e+05  -4.5696754489663830e+06  -2.4369787615290791e+05  -5.4326265112550538e+06  -1.6325019408839128e+06  -5.1629298519234350e+06  -2.3470960560093024e+06  -5.8578113856798206e+06  -2.1403779559940607e+06  -5.9236490059656473e+06  -3.2636716939084628e+06  -4.6122694134412352e+06  -3.3286840127222016e+06  -7.6253758715021648e+06  1.6224658680078361e+05  -1.7451502332879011e+07  2.7341018980798335e+06  -2.4920279577203244e+07  9.9434090805788599e+06  -2.4414272546613671e+07  2.6522181265117936e+06  -1.4780845266268631e+07  5.9309556055665302e+00  5.0214158856672887e-09  1.5153486324718643e+07  -2.9666866813220056e+06  1.2608233837889852e+06  -3.6454003618329726e+06  1.0819662442410442e+06  -2.5218111873717224e+06  2.3655313465219685e+06  -3.7992309713153220e+06  4.7066766605187654e+06  -3.5267703196113775e+06  5.3973325369193507e+06  -2.8784920399419777e+06  6.9308910207587769e+06  -3.8651865274539213e+06  8.8556991546181124e+06  -4.4911477169009103e+06  9.0742132489774767e+06  -4.2122356811777847e+06  9.4687768823687620e+06  -6.9754866914598616e+06  1.5819052917487560e+07  -1.1638277215378286e+07  2.6124374803055234e+07  -1.6682773093432404e+07  3.0697290808489408e+07  -2.4920287987400133e+07  3.7556839954075672e+07  -2.6698324665997744e+07  4.9387330684516355e+07  5.0698057084495165e+00  0.0000000000000000e+00  8.7041955856320001e+06  -2.7091187350984518e+06  -3.6789993550059819e+06  3.9285997317817324e+05  -2.5218111912932694e+06  1.8254160936921891e+06  -3.9410250648393352e+06  2.6343119939755993e+06  -3.7721973436575630e+06  1.2795590326770009e+06  -3.8006917618697323e+06  1.2551404300867077e+06  -5.0000747401719270e+06  1.2147551709025379e+06  -5.0334963636759343e+06  -1.6219151560159140e+04  -3.9365196506601893e+06  -1.0553288725896201e+06  -4.3136589760479284e+06  7.5739495320332795e+05  -1.0038720613912566e+07  1.7796768654126269e+06  -1.5100572725432178e+07  4.7073894736629315e+06  -1.6682793243491756e+07  2.7341174680528482e+06  -1.5111703625718689e+07  -7.9035342887073895e+05  -4.4395905221805917e+06  4.3060220383399592e+00  0.0000000000000000e+00  1.4440278124667475e+07  -6.6620051667793011e+06  3.2649843070469303e+06  -2.7897635932312557e+06  2.3655313502489054e+06  -3.9410250690464196e+06  3.1632405914775934e+06  -3.5420504332041936e+06  3.1392413841686700e+06  -3.5549329922254616e+06  5.1840492081698636e+06  -4.3998747865757011e+06  6.4340324695727862e+06  -4.2170222722869236e+06  6.9868430341997501e+06  -4.2722609035766842e+06  7.5172277456947062e+06  -5.0530911974357869e+06  9.7181634973231535e+06  -8.0375974472859325e+06  1.6337079192596808e+07  -1.0498393341783835e+07  1.9963262859710917e+07  -1.5100607727766285e+07  2.6124403652204007e+07  -1.7451508141069662e+07  2.4289359804007150e+07  -1.6327642406678643e+07  2.8355909818421621e+07  3.6319731181010444e+00  0.0000000000000000e+00  6.2282201835883493e+06  -5.3258246329310341e+06  -1.7002929783408733e+06  -2.1782038024277531e+05  -3.7992310098304763e+06  2.6343120103723295e+06  -3.5420504401153275e+06  2.6647842853192524e+06  -3.6662886086197393e+06  3.7385791467580390e+06  -4.4677307577561149e+06  2.9295431879179450e+06  -4.2076670836728374e+06  2.3728887341715833e+06  -4.6362524743624199e+06  2.0028779857802780e+06  -4.0048960087575251e+06  1.2013763372748571e+06  -5.2364294754371066e+06  2.1515151223223722e+06  -9.4855593623620998e+06  2.9028736416161126e+06  -1.0498458576941645e+07  1.7797293189976632e+06  -1.1638288812210141e+07  1.6223423943604791e+05  -9.1048492430606131e+06  -5.7859819900148176e+06  9.9207404831293435e+05  3.0403389594586883e+00  0.0000000000000000e+00  1.3529049208922317e+07  -7.4140417547347136e+06  5.6062011673127543e+06  -4.5696754245314579e+06  4.7066766776485676e+06  -3.7721973403297388e+06  3.1392413894134639e+06  -3.6662886122918758e+06  4.2617399727050271e+06  -4.3754879050679207e+06  4.1673533464043923e+06  -4.0113453956448366e+06  5.6373532324355850e+06  -5.0390647466687197e+06  6.7281053552369457e+06  -4.6077337770258998e+06  5.9990634178362377e+06  -4.6851324156727102e+06  9.3949460665030051e+06  -7.3176528349909689e+06  1.3419348094759289e+07  -9.4856708805494402e+06  1.6337170787939204e+07  -1.0038736699372401e+07  1.5819026114672627e+07  -7.6253521694169268e+06  1.4527304732650442e+07  -9.4139842270959448e+06  1.9411606211008526e+07  2.5241110269111084e+00  0.0000000000000000e+00  4.5043050475343484e+06  -6.2364376255346360e+06  -1.7808651255811071e+06  -2.4369781126182718e+05  -3.5267703956196355e+06  1.2795590577230221e+06  -3.5549330264846268e+06  3.7385791662822673e+06  -4.3754879166346025e+06  3.6285636255457741e+06  -3.9408185554381814e+06  4.6154920043540020e+06  -5.3566947980682990e+06  4.0052180476521752e+06  -4.2886702231534412e+06  1.9856940542749362e+06  -2.9883306450216579e+06  2.3926642935911072e+06  -6.8626909501853157e+06  3.7892682211958612e+06  -7.3178382871595863e+06  2.1516686135551785e+06  -8.0376230129123321e+06  7.5734310383652663e+05  -6.9754426910319347e+06  -3.3286913411397724e+06  -4.4783153291212553e+06  -7.8761987362304265e+06  1.5447649265012296e+06  2.0765924181809226e+00  3.9598199541539497e-09  1.3208416124138923e+07  -8.1647856183342673e+06  8.1561664894405995e+06  -5.4326264794002492e+06  5.3973325449573994e+06  -3.8006917430496989e+06  5.1840492331777187e+06  -4.4677307689786358e+06  4.1673533594554118e+06  -3.9408185599580696e+06  5.1876271949027628e+06  -5.6273076443320597e+06  4.9942535465448946e+06  -3.9960487481752732e+06  4.7241215060889004e+06  -3.7180562064987365e+06  5.4814799239623314e+06  -5.9191530938789370e+06  9.8589471852475815e+06  -6.8629790204362953e+06  9.3951898330389615e+06  -5.2364646676088553e+06  9.7180692748034373e+06  -4.3135772762299348e+06  9.4687633338857293e+06  -4.6122913044360550e+06  1.1951978255110150e+07  -8.2290075079693133e+06  1.6720542194256732e+07  1.6913975033109740e+00  0.0000000000000000e+00  2.7764215067895893e+06  -5.9543206731972219e+06  -2.0870295905038738e+06  -1.6325018574321698e+06  -2.8784921461185124e+06  1.2551404900118478e+06  -4.3998748760698931e+06  2.9295432278752411e+06  -4.0113454346910901e+06  4.6154920294622658e+06  -5.6273076651133765e+06  4.4350216766821612e+06  -3.4928869854781716e+06  3.9218307067498527e+06  -4.6758019552749144e+06  3.3541348764044223e+06  -4.3808721023874488e+06  4.0629426695458698e+06  -5.9195724524082439e+06  2.3930277502161572e+06  -4.6851799992604349e+06  1.2012170859962776e+06  -5.0529537676727818e+06  -1.0553503861484216e+06  -4.2122791349674743e+06  -3.2636385596797639e+06  -3.6747225304404460e+06  -7.3035413738786764e+06  9.8236057383944374e+05  1.3624522855685026e+00  1.2949788719383208e-05  1.3758674280902948e+07  -8.4726424447287936e+06  9.0878817887622453e+06  -5.1629297957058018e+06  6.9308910390216382e+06  -5.0000747352050701e+06  6.4340325130473757e+06  -4.2076670851287534e+06  5.6373532717787735e+06  -5.3566948325108178e+06  4.9942535798539091e+06  -3.4928869929860868e+06  4.4709360496120919e+06  -5.8683735022316426e+06  5.0618480550410664e+06  -3.0391818284672503e+06  4.3101016757651716e+06  -4.3814336337114638e+06  5.4819828452611212e+06  -2.9883885157966409e+06  5.9988135028290907e+06  -4.0046777290933807e+06  7.5171964042478194e+06  -3.9365958893567384e+06  9.0742727230887916e+06  -5.9236531815257082e+06  1.1494643598181212e+07  -8.1083473827815903e+06  1.5274473268327212e+07  1.0839942209930546e+00  0.0000000000000000e+00  1.4825906829127760e+06  -6.3889422910874123e+06  -1.8775079401839599e+06  -2.3470959426317359e+06  -3.8651867053516116e+06  1.2147552826626217e+06  -4.2170224090635516e+06  2.3728888106874479e+06  -5.0390648635497438e+06  4.0052181219493118e+06  -3.9960488047973593e+06  3.9218307362519498e+06  -5.8683735401981007e+06  5.0410942638607714e+06  -1.8432336021862573e+06  5.6722961934809585e+05  -3.0398691723745568e+06  3.3547745053359671e+06  -3.7181225747104762e+06  1.9853341651870830e+06  -4.6074155195122091e+06  2.0028375745950299e+06  -4.2723890704985512e+06  -1.6119007516110216e+04  -4.4911548535973830e+06  -2.1404125246566460e+06  -2.7906441305955849e+06  -7.0096686749277608e+06  1.0298348535391229e+06  8.5057225448690543e-01  0.0000000000000000e+00  1.4379051633289432e+07  -8.0097190894175582e+06  9.9566806742931418e+06  -5.8578113381942315e+06  8.8556992162642814e+06  -5.0334963660153830e+06  6.9868430986056924e+06  -4.6362525053969342e+06  6.7281054530653637e+06  -4.2886702722698115e+06  4.7241215785302306e+06  -4.6758020384797035e+06  5.0618481642042883e+06  -1.8432336482223785e+06  -1.8830747633943529e+05  -1.8439953186703632e+06  5.0625895715768617e+06  -4.6758725298233600e+06  4.7236502089645853e+06  -4.2882431740487423e+06  6.7280585314501040e+06  -4.6364486091125868e+06  6.9869978865071898e+06  -5.0335036778704617e+06  8.8556377649008129e+06  -5.8577742342851395e+06  9.9566842332263608e+06  -8.0097324382092441e+06  1.4379056107540395e+07  6.5704681981505719e-01  0.0000000000000000e+00  1.0298406970673488e+06  -7.0096703935900163e+06  -2.7906638738161130e+06  -2.1403777677552481e+06  -4.4911479865052104e+06  -1.6218989009429593e+04  -4.2722611280599982e+06  2.0028781551960181e+06  -4.6077339966490949e+06  1.9856941989522185e+06  -3.7180563942261147e+06  3.3541350454943916e+06  -3.0391819616032261e+06  5.6722961932048562e+05  -1.8439952726259478e+06  5.0418736444644500e+06  -5.8684458074571462e+06  3.9212744645756213e+06  -3.9955277441681582e+06  4.0051689929327010e+06  -5.0393394769207435e+06  2.3731082594139744e+06  -4.2170285927454419e+06  1.2146559340801702e+06  -3.8651262210577317e+06  -2.3470884032041458e+06  -1.8775355415026029e+06  -6.3889311955124093e+06  1.4825922040199451e+06  4.9858983960523928e-01  7.7033590955826834e-09  1.5274473080430046e+07  -8.1083575998960696e+06  1.1494661810914874e+07  -5.9236489840714177e+06  9.0742133554349076e+06  -3.9365196757522114e+06  7.5172278911020840e+06  -4.0048961068951227e+06  5.9990635812242851e+06  -2.9883307353923772e+06  5.4814800753683075e+06  -4.3808721801530709e+06  4.3101016756957434e+06  -3.0398690391508597e+06  5.0625894624249125e+06  -5.8684457694871351e+06  4.4703477868623761e+06  -3.4923104593041125e+06  4.9942050471461201e+06  -5.3570402264263490e+06  5.6376359156519407e+06  -4.2076679470105134e+06  6.4338856266148565e+06  -4.9999833222812098e+06  6.9309046989385653e+06  -5.1629764688013587e+06  9.0879014677010588e+06  -8.4726358386670891e+06  1.3758666951067008e+07  3.7068471498883504e-01  0.0000000000000000e+00  9.8235787638169795e+05  -7.3035333846355854e+06  -3.6747192255446855e+06  -3.2636714229322928e+06  -4.2122360580005543e+06  -1.0553286231359518e+06  -5.0530915476624575e+06  1.2013765662182986e+06  -4.6851326679797675e+06  2.3926644204243692e+06  -5.9191532451224765e+06  4.0629426695005861e+06  -4.3814335558169149e+06  3.3547743361447980e+06  -4.6758724466713546e+06  3.9212744350573793e+06  -3.4923104518029252e+06  4.4349738338552229e+06  -5.6276960722161839e+06  4.6158215519740283e+06  -4.0113396328227525e+06  2.9293474206331577e+06  -4.3997510970830638e+06  1.2551635320689874e+06  -2.8785654356234367e+06  -1.6324702981277937e+06  -2.0870171266625451e+06  -5.9543381192117156e+06  2.7764250184391513e+06  2.6912637739624745e-01  -8.2298557378547960e-09  1.6720545195642490e+07  -8.2290064560399782e+06  1.1951961653229276e+07  -4.6122693760593766e+06  9.4687770238800123e+06  -4.3136590048691947e+06  9.7181636544401348e+06  -5.2364294868509192e+06  9.3949461309141070e+06  -6.8626908986335257e+06  9.8589471851467472e+06  -5.9195723011250263e+06  5.4819826937970193e+06  -3.7181223868492884e+06  4.7236501366329696e+06  -3.9955276874917736e+06  4.9942050138622951e+06  -5.6276960514293751e+06  5.1879740802109232e+06  -3.9408075494504836e+06  4.1671197666785773e+06  -4.4675786158604464e+06  5.1840832090449147e+06  -3.8007941249438650e+06  5.3973772841226505e+06  -5.4326042694521584e+06  8.1561349683689289e+06  -8.1647771869012713e+06  1.3208420906199271e+07  1.9002118496616802e-01  0.0000000000000000e+00  1.5447668560805775e+06  -7.8762066347918920e+06  -4.4783038612977304e+06  -3.3286837110960442e+06  -6.9754871364541007e+06  7.5739518578252418e+05  -8.0375977539818455e+06  2.1515152069391767e+06  -7.3176529768308783e+06  3.7892682207981749e+06  -6.8629790715438975e+06  2.3930276233651587e+06  -2.9883884254912622e+06  1.9853340203019250e+06  -4.2882431251257379e+06  4.0051689185118726e+06  -5.3570401920486996e+06  4.6158215268368637e+06  -3.9408075449344893e+06  3.6283157392273736e+06  -4.3753195382556720e+06  3.7386225163940801e+06  -3.5550622471932406e+06  1.2796165163577965e+06  -3.5267377202819763e+06  -2.4374541882351032e+05  -1.7808530912008358e+06  -6.2364254154573642e+06  4.5042960640247185e+06  1.2978702613630766e-01  0.0000000000000000e+00  1.9411603920389175e+07  -9.4139801810870711e+06  1.4527308766758880e+07  -7.6253757436593808e+06  1.5819053045119591e+07  -1.0038720540783897e+07  1.6337079259340940e+07  -9.4855592295837756e+06  1.3419348094586287e+07  -7.3178381445894968e+06  9.3951897679768503e+06  -4.6851797469222555e+06  5.9988133396840366e+06  -4.6074152995100236e+06  6.7280584339503367e+06  -5.0393393597920937e+06  5.6376358764543300e+06  -4.0113395936985360e+06  4.1671197536589163e+06  -4.3753195266861301e+06  4.2617870378634799e+06  -3.6664336765195453e+06  3.1393078710705317e+06  -3.7721540301231290e+06  4.7066126738858838e+06  -4.5696588242026912e+06  5.6062218025159743e+06  -7.4140595097321738e+06  1.3529051301533641e+07  8.5153410248890310e-02  0.0000000000000000e+00  9.9207705989880429e+05  -5.7859805175618753e+06  -9.1048593641165886e+06  1.6224688009705712e+05  -1.1638277696422216e+07  1.7796770080735339e+06  -1.0498393601718741e+07  2.9028736408719304e+06  -9.4856710130499043e+06  2.1516685286296383e+06  -5.2364646554256557e+06  1.2012168568490173e+06  -4.0046776314841355e+06  2.0028374045229384e+06  -4.6364485786830503e+06  2.3731081824412905e+06  -4.2076679458615202e+06  2.9293473804994170e+06  -4.4675786047286894e+06  3.7386224968379699e+06  -3.6664336728501827e+06  2.6648540552232317e+06  -3.5420008229051176e+06  2.6342357792571369e+06  -3.7992116362869153e+06  -2.1779057128683367e+05  -1.7003210853979781e+06  -5.3258212549801646e+06  6.2282264610503791e+06  5.3160765905431631e-02  5.5145126208862437e-09  2.8355910871419415e+07  -1.6327647497942910e+07  2.4289365069040801e+07  -1.7451502139194306e+07  2.6124374945236236e+07  -1.5100572519613955e+07  1.9963262858080719e+07  -1.0498458313927317e+07  1.6337170720423352e+07  -8.0376227065349622e+06  9.7180691170545630e+06  -5.0529534168928135e+06  7.5171962599148043e+06  -4.2723888448290834e+06  6.9869978231968395e+06  -4.2170284550787685e+06  6.4338855837544743e+06  -4.3997510072002159e+06  5.1840831842540419e+06  -3.5550622128290930e+06  3.1393078658593073e+06  -3.5420008159907055e+06  3.1631597644154411e+06  -3.9410038982625208e+06  2.3655680431561563e+06  -2.7897995182173965e+06  3.2649875018890686e+06  -6.6619906949661020e+06  1.4440270483625621e+07  3.1161864975327427e-02  0.0000000000000000e+00  -4.4395898443211038e+06  -7.9035214626701234e+05  -1.5111698647773528e+07  2.7341021497901464e+06  -1.6682773604741568e+07  4.7073894745577248e+06  -1.5100607934085308e+07  1.7797291726176427e+06  -1.0038736770451531e+07  7.5734287226810772e+05  -4.3135772471325481e+06  -1.0553506369263527e+06  -3.9365958662886075e+06  -1.6119172276555790e+04  -5.0335036775157684e+06  1.2146558206624445e+06  -4.9999833284597667e+06  1.2551634713225740e+06  -3.8007941442647269e+06  1.2796164910433053e+06  -3.7721540335736880e+06  2.6342357628238769e+06  -3.9410038940589838e+06  1.8254554299287312e+06  -2.5218520602727160e+06  3.9286307517016056e+05  -3.6789790051816297e+06  -2.7091319988712161e+06  8.7041947842674535e+06  1.6820398587265448e-02  0.0000000000000000e+00  4.9387331128829435e+07  -2.6698323076786008e+07  3.7556832262608103e+07  -2.4920279155600447e+07  3.0697290799325481e+07  -1.6682792718427552e+07  2.6124403514906764e+07  -1.1638288330347659e+07  1.5819025982288389e+07  -6.9754422478417149e+06  9.4687631931030471e+06  -4.2122787550497409e+06  9.0742726207775678e+06  -4.4911545796848536e+06  8.8556377071549706e+06  -3.8651260399501855e+06  6.9309046831219755e+06  -2.8785653277240656e+06  5.3973772772047753e+06  -3.5267376436173883e+06  4.7066126570952842e+06  -3.7992115976256267e+06  2.3655680394702042e+06  -2.5218520563474908e+06  1.0819692174641597e+06  -3.6453760261284364e+06  1.2608058102733297e+06  -2.9666877811468425e+06  1.5153492754694782e+07  8.1116891335192166e-03  0.0000000000000000e+00  -1.4780841799499312e+07  2.6522142584075439e+06  -2.4414266611990623e+07  9.9434090678309370e+06  -2.4920288456118084e+07  2.7341171886889804e+06  -1.7451