<?xml version="1.0"?>
<VTKFile type="UnstructuredGrid"  version="0.1"  >
<UnstructuredGrid>
<Piece  NumberOfPoints="961" NumberOfCells="1800">
<Points>
<DataArray  type="Float64"  NumberOfComponents="3"  format="ascii">-1 -1 0  -0.9333333333333333 -1 0  -0.8666666666666667 -1 0  -0.8 -1 0  -0.7333333333333334 -1 0  -0.6666666666666667 -1 0  -0.6 -1 0  -0.5333333333333333 -1 0  -0.4666666666666667 -1 0  -0.4 -1 0  -0.3333333333333334 -1 0  -0.2666666666666667 -1 0  -0.2 -1 0  -0.1333333333333333 -1 0  -0.06666666666666665 -1 0  0 -1 0  0.06666666666666665 -1 0  0.1333333333333333 -1 0  0.2 -1 0  0.2666666666666666 -1 0  0.3333333333333333 -1 0  0.3999999999999999 -1 0  0.4666666666666666 -1 0  0.5333333333333334 -1 0  0.6000000000000001 -1 0  0.6666666666666667 -1 0  0.7333333333333334 -1 0  0.8 -1 0  0.8666666666666667 -1 0  0.9333333333333333 -1 0  1 -1 0  -1 -0.9333333333333333 0  -0.9333333333333333 -0.9333333333333333 0  -0.8666666666666667 -0.9333333333333333 0  -0.8 -0.9333333333333333 0  -0.7333333333333334 -0.9333333333333333 0  -0.6666666666666667 -0.9333333333333333 0  -0.6 -0.9333333333333333 0  -0.5333333333333333 -0.9333333333333333 0  -0.4666666666666667 -0.9333333333333333 0  -0.4 -0.9333333333333333 0  -0.3333333333333334 -0.9333333333333333 0  -0.2666666666666667 -0.9333333333333333 0  -0.2 -0.9333333333333333 0  -0.1333333333333333 -0.9333333333333333 0  -0.06666666666666665 -0.9333333333333333 0  0 -0.9333333333333333 0  0.06666666666666665 -0.9333333333333333 0  0.1333333333333333 -0.9333333333333333 0  0.2 -0.9333333333333333 0  0.2666666666666666 -0.9333333333333333 0  0.3333333333333333 -0.9333333333333333 0  0.3999999999999999 -0.9333333333333333 0  0.4666666666666666 -0.9333333333333333 0  0.5333333333333334 -0.9333333333333333 0  0.6000000000000001 -0.9333333333333333 0  0.6666666666666667 -0.9333333333333333 0  0.7333333333333334 -0.9333333333333333 0  0.8 -0.9333333333333333 0  0.8666666666666667 -0.9333333333333333 0  0.9333333333333333 -0.9333333333333333 0  1 -0.9333333333333333 0  -1 -0.8666666666666667 0  -0.9333333333333333 -0.8666666666666667 0  -0.8666666666666667 -0.8666666666666667 0  -0.8 -0.8666666666666667 0  -0.7333333333333334 -0.8666666666666667 0  -0.6666666666666667 -0.8666666666666667 0  -0.6 -0.8666666666666667 0  -0.5333333333333333 -0.8666666666666667 0  -0.4666666666666667 -0.8666666666666667 0  -0.4 -0.8666666666666667 0  -0.3333333333333334 -0.8666666666666667 0  -0.2666666666666667 -0.8666666666666667 0  -0.2 -0.8666666666666667 0  -0.1333333333333333 -0.8666666666666667 0  -0.06666666666666665 -0.8666666666666667 0  0 -0.8666666666666667 0  0.06666666666666665 -0.8666666666666667 0  0.1333333333333333 -0.8666666666666667 0  0.2 -0.8666666666666667 0  0.2666666666666666 -0.8666666666666667 0  0.3333333333333333 -0.8666666666666667 0  0.3999999999999999 -0.8666666666666667 0  0.4666666666666666 -0.8666666666666667 0  0.5333333333333334 -0.8666666666666667 0  0.6000000000000001 -0.8666666666666667 0  0.6666666666666667 -0.8666666666666667 0  0.7333333333333334 -0.8666666666666667 0  0.8 -0.8666666666666667 0  0.8666666666666667 -0.8666666666666667 0  0.9333333333333333 -0.8666666666666667 0  1 -0.8666666666666667 0  -1 -0.8 0  -0.9333333333333333 -0.8 0  -0.8666666666666667 -0.8 0  -0.8 -0.8 0  -0.7333333333333334 -0.8 0  -0.6666666666666667 -0.8 0  -0.6 -0.8 0  -0.5333333333333333 -0.8 0  -0.4666666666666667 -0.8 0  -0.4 -0.8 0  -0.3333333333333334 -0.8 0  -0.2666666666666667 -0.8 0  -0.2 -0.8 0  -0.1333333333333333 -0.8 0  -0.06666666666666665 -0.8 0  0 -0.8 0  0.06666666666666665 -0.8 0  0.1333333333333333 -0.8 0  0.2 -0.8 0  0.2666666666666666 -0.8 0  0.3333333333333333 -0.8 0  0.3999999999999999 -0.8 0  0.4666666666666666 -0.8 0  0.5333333333333334 -0.8 0  0.6000000000000001 -0.8 0  0.6666666666666667 -0.8 0  0.7333333333333334 -0.8 0  0.8 -0.8 0  0.8666666666666667 -0.8 0  0.9333333333333333 -0.8 0  1 -0.8 0  -1 -0.7333333333333334 0  -0.9333333333333333 -0.7333333333333334 0  -0.8666666666666667 -0.7333333333333334 0  -0.8 -0.7333333333333334 0  -0.7333333333333334 -0.7333333333333334 0  -0.6666666666666667 -0.7333333333333334 0  -0.6 -0.7333333333333334 0  -0.5333333333333333 -0.7333333333333334 0  -0.4666666666666667 -0.7333333333333334 0  -0.4 -0.7333333333333334 0  -0.3333333333333334 -0.7333333333333334 0  -0.2666666666666667 -0.7333333333333334 0  -0.2 -0.7333333333333334 0  -0.1333333333333333 -0.7333333333333334 0  -0.06666666666666665 -0.7333333333333334 0  0 -0.7333333333333334 0  0.06666666666666665 -0.7333333333333334 0  0.1333333333333333 -0.7333333333333334 0  0.2 -0.7333333333333334 0  0.2666666666666666 -0.7333333333333334 0  0.3333333333333333 -0.7333333333333334 0  0.3999999999999999 -0.7333333333333334 0  0.4666666666666666 -0.7333333333333334 0  0.5333333333333334 -0.7333333333333334 0  0.6000000000000001 -0.7333333333333334 0  0.6666666666666667 -0.7333333333333334 0  0.7333333333333334 -0.7333333333333334 0  0.8 -0.7333333333333334 0  0.8666666666666667 -0.7333333333333334 0  0.9333333333333333 -0.7333333333333334 0  1 -0.7333333333333334 0  -1 -0.6666666666666667 0  -0.9333333333333333 -0.6666666666666667 0  -0.8666666666666667 -0.6666666666666667 0  -0.8 -0.6666666666666667 0  -0.7333333333333334 -0.6666666666666667 0  -0.6666666666666667 -0.6666666666666667 0  -0.6 -0.6666666666666667 0  -0.5333333333333333 -0.6666666666666667 0  -0.4666666666666667 -0.6666666666666667 0  -0.4 -0.6666666666666667 0  -0.3333333333333334 -0.6666666666666667 0  -0.2666666666666667 -0.6666666666666667 0  -0.2 -0.6666666666666667 0  -0.1333333333333333 -0.6666666666666667 0  -0.06666666666666665 -0.6666666666666667 0  0 -0.6666666666666667 0  0.06666666666666665 -0.6666666666666667 0  0.1333333333333333 -0.6666666666666667 0  0.2 -0.6666666666666667 0  0.2666666666666666 -0.6666666666666667 0  0.3333333333333333 -0.6666666666666667 0  0.3999999999999999 -0.6666666666666667 0  0.4666666666666666 -0.6666666666666667 0  0.5333333333333334 -0.6666666666666667 0  0.6000000000000001 -0.6666666666666667 0  0.6666666666666667 -0.6666666666666667 0  0.7333333333333334 -0.6666666666666667 0  0.8 -0.6666666666666667 0  0.8666666666666667 -0.6666666666666667 0  0.9333333333333333 -0.6666666666666667 0  1 -0.6666666666666667 0  -1 -0.6 0  -0.9333333333333333 -0.6 0  -0.8666666666666667 -0.6 0  -0.8 -0.6 0  -0.7333333333333334 -0.6 0  -0.6666666666666667 -0.6 0  -0.6 -0.6 0  -0.5333333333333333 -0.6 0  -0.4666666666666667 -0.6 0  -0.4 -0.6 0  -0.3333333333333334 -0.6 0  -0.2666666666666667 -0.6 0  -0.2 -0.6 0  -0.1333333333333333 -0.6 0  -0.06666666666666665 -0.6 0  0 -0.6 0  0.06666666666666665 -0.6 0  0.1333333333333333 -0.6 0  0.2 -0.6 0  0.2666666666666666 -0.6 0  0.3333333333333333 -0.6 0  0.3999999999999999 -0.6 0  0.4666666666666666 -0.6 0  0.5333333333333334 -0.6 0  0.6000000000000001 -0.6 0  0.6666666666666667 -0.6 0  0.7333333333333334 -0.6 0  0.8 -0.6 0  0.8666666666666667 -0.6 0  0.9333333333333333 -0.6 0  1 -0.6 0  -1 -0.5333333333333333 0  -0.9333333333333333 -0.5333333333333333 0  -0.8666666666666667 -0.5333333333333333 0  -0.8 -0.5333333333333333 0  -0.7333333333333334 -0.5333333333333333 0  -0.6666666666666667 -0.5333333333333333 0  -0.6 -0.5333333333333333 0  -0.5333333333333333 -0.5333333333333333 0  -0.4666666666666667 -0.5333333333333333 0  -0.4 -0.5333333333333333 0  -0.3333333333333334 -0.5333333333333333 0  -0.2666666666666667 -0.5333333333333333 0  -0.2 -0.5333333333333333 0  -0.1333333333333333 -0.5333333333333333 0  -0.06666666666666665 -0.5333333333333333 0  0 -0.5333333333333333 0  0.06666666666666665 -0.5333333333333333 0  0.1333333333333333 -0.5333333333333333 0  0.2 -0.5333333333333333 0  0.2666666666666666 -0.5333333333333333 0  0.3333333333333333 -0.5333333333333333 0  0.3999999999999999 -0.5333333333333333 0  0.4666666666666666 -0.5333333333333333 0  0.5333333333333334 -0.5333333333333333 0  0.6000000000000001 -0.5333333333333333 0  0.6666666666666667 -0.5333333333333333 0  0.7333333333333334 -0.5333333333333333 0  0.8 -0.5333333333333333 0  0.8666666666666667 -0.5333333333333333 0  0.9333333333333333 -0.5333333333333333 0  1 -0.5333333333333333 0  -1 -0.4666666666666667 0  -0.9333333333333333 -0.4666666666666667 0  -0.8666666666666667 -0.4666666666666667 0  -0.8 -0.4666666666666667 0  -0.7333333333333334 -0.4666666666666667 0  -0.6666666666666667 -0.4666666666666667 0  -0.6 -0.4666666666666667 0  -0.5333333333333333 -0.4666666666666667 0  -0.4666666666666667 -0.4666666666666667 0  -0.4 -0.4666666666666667 0  -0.3333333333333334 -0.4666666666666667 0  -0.2666666666666667 -0.4666666666666667 0  -0.2 -0.4666666666666667 0  -0.1333333333333333 -0.4666666666666667 0  -0.06666666666666665 -0.4666666666666667 0  0 -0.4666666666666667 0  0.06666666666666665 -0.4666666666666667 0  0.1333333333333333 -0.4666666666666667 0  0.2 -0.4666666666666667 0  0.2666666666666666 -0.4666666666666667 0  0.3333333333333333 -0.4666666666666667 0  0.3999999999999999 -0.4666666666666667 0  0.4666666666666666 -0.4666666666666667 0  0.5333333333333334 -0.4666666666666667 0  0.6000000000000001 -0.4666666666666667 0  0.6666666666666667 -0.4666666666666667 0  0.7333333333333334 -0.4666666666666667 0  0.8 -0.4666666666666667 0  0.8666666666666667 -0.4666666666666667 0  0.9333333333333333 -0.4666666666666667 0  1 -0.4666666666666667 0  -1 -0.4 0  -0.9333333333333333 -0.4 0  -0.8666666666666667 -0.4 0  -0.8 -0.4 0  -0.7333333333333334 -0.4 0  -0.6666666666666667 -0.4 0  -0.6 -0.4 0  -0.5333333333333333 -0.4 0  -0.4666666666666667 -0.4 0  -0.4 -0.4 0  -0.3333333333333334 -0.4 0  -0.2666666666666667 -0.4 0  -0.2 -0.4 0  -0.1333333333333333 -0.4 0  -0.06666666666666665 -0.4 0  0 -0.4 0  0.06666666666666665 -0.4 0  0.1333333333333333 -0.4 0  0.2 -0.4 0  0.2666666666666666 -0.4 0  0.3333333333333333 -0.4 0  0.3999999999999999 -0.4 0  0.4666666666666666 -0.4 0  0.5333333333333334 -0.4 0  0.6000000000000001 -0.4 0  0.6666666666666667 -0.4 0  0.7333333333333334 -0.4 0 
[...]
<PointData  Scalars="f_24"> 
<DataArray  type="Float64"  Name="f_24"  format="ascii">0.0000000000000000e+00  0.0000000000000000e+00  0.0000000000000000e+00  0.0000000000000000e+00  0.0000000000000000e+00  0.0000000000000000e+00  0.0000000000000000e+00  0.0000000000000000e+00  0.0000000000000000e+00  0.0000000000000000e+00  0.0000000000000000e+00  0.0000000000000000e+00  0.0000000000000000e+00  0.0000000000000000e+00  0.0000000000000000e+00  0.0000000000000000e+00  0.0000000000000000e+00  0.0000000000000000e+00  0.0000000000000000e+00  0.0000000000000000e+00  0.0000000000000000e+00  0.0000000000000000e+00  0.0000000000000000e+00  0.0000000000000000e+00  0.0000000000000000e+00  -1.6851415013025883e-07  0.0000000000000000e+00  -3.1817450956019953e-07  0.0000000000000000e+00  0.0000000000000000e+00  1.1793973990266046e+01  0.0000000000000000e+00  1.0779002640561441e+07  1.1787238172659693e+07  1.7152851921235215e+07  1.2377986990803108e+07  1.6945971414421204e+07  9.7032590313093085e+06  1.6132192307035197e+07  6.9141398123205490e+06  1.5100588032583876e+07  4.9726790291237039e+06  1.4735076947729297e+07  3.0298708979496849e+06  1.5349314477412127e+07  1.5764142471055116e+06  1.6044373606502643e+07  1.0685455270089102e+06  1.7049944175671943e+07  1.0173173279072302e+06  1.8675388921644140e+07  1.6526349393075581e+06  2.1700160276647869e+07  1.0399093787262721e+06  3.1743611161649812e+07  -5.0426650906483391e+06  5.5351399216457866e+07  -1.6628658943504006e+07  9.1691863065401897e+07  -1.0220902622217579e+07  1.9938117706077889e+08  1.0298337923221432e+01  0.0000000000000000e+00  1.1787238154046416e+07  1.2977851436587853e+07  5.2670733831254430e+06  2.3926379854211984e+06  -3.4113379701906913e+06  -3.1254166733096694e+06  -7.5597165626608720e+06  -6.0579488133419864e+06  -8.3964100818985719e+06  -7.0703640850480003e+06  -9.2287865047931802e+06  -6.7445434838240063e+06  -9.5663122812761832e+06  -7.2264271964562610e+06  -9.0438346659954693e+06  -7.9224398199569182e+06  -9.1569020795670953e+06  -8.2570823340574065e+06  -9.2993633461952526e+06  -8.9081465618744735e+06  -1.0637952493457915e+07  -6.5718421192647098e+06  -1.8400934515256464e+07  -9.7058607609859819e+05  -3.0033436958567463e+07  2.9006580438945796e+06  -2.5971951622247245e+07  -1.6000657203219250e+07  -1.0220910046266735e+07  8.9496751564419466e+00  -1.2468998766046413e-08  1.7152851913252302e+07  5.2670733864011467e+06  1.9598739618068528e+06  -4.0529447237000056e+06  1.3350137555148392e+06  -4.1940886584628737e+06  3.6133878809556933e+06  -1.9380332384709346e+06  6.2777106826576563e+06  -1.9925322668394123e+06  9.1701223443683237e+06  -2.3099058127984433e+06  1.0235213583018079e+07  -2.0615585302960312e+06  1.1216584369953560e+07  -3.0858789007109040e+06  1.2935574274749655e+07  -4.0906085981029677e+06  1.3429265613899376e+07  -5.0175418241951857e+06  1.6287697688325824e+07  -1.0242714285874452e+07  2.7202909136263456e+07  -1.7016746744893543e+07  4.2057891414004840e+07  -2.7471657369509649e+07  5.0312236667684175e+07  -2.5971951111667246e+07  9.1691864507510841e+07  7.7380261335065246e+00  0.0000000000000000e+00  1.2377986933043130e+07  2.3926380034543988e+06  -4.0529447290938362e+06  6.0975558746705635e+05  -4.1390522430371898e+06  4.2355373738505912e+05  -3.1132235727808969e+06  -1.9668578157340034e+05  -5.0525673291678624e+06  -1.7863482048918534e+05  -5.9845706558552589e+06  -1.7106516588841418e+06  -5.6645002943485072e+06  -2.5018105501119616e+06  -6.4393000153427133e+06  -2.2702157426927364e+06  -6.5185229699785430e+06  -3.5413983269814062e+06  -5.0650791412314204e+06  -3.6403129578868663e+06  -8.4810314839985128e+06  2.2997596218350442e+05  -1.9560622855881616e+07  3.0524150794409690e+06  -2.8003477300991528e+07  1.1084699224064210e+07  -2.7471665180111837e+07  2.9006633153192359e+06  -1.6628665159025053e+07  6.6537815533034781e+00  -4.5210235385744674e-09  1.6945971398097739e+07  -3.4113379359200080e+06  1.3350137614971825e+06  -4.1390522464373056e+06  1.2087255229131675e+06  -2.7876375443158047e+06  2.7360907773268996e+06  -4.1490282656555614e+06  5.4142500127970129e+06  -3.8105868383132736e+06  6.2068779994696360e+06  -3.0757120099219466e+06  7.9290341849466339e+06  -4.1835010897345110e+06  1.0087210481494376e+07  -4.8862550254591769e+06  1.0332559021502325e+07  -4.5734709945496162e+06  1.0772641373352731e+07  -7.6816926351032062e+06  1.7878829862726286e+07  -1.2945083626372179e+07  2.9389627001863077e+07  -1.8673960295804769e+07  3.4435299750061765e+07  -2.8003486736164086e+07  4.2057900301371120e+07  -3.0033437920487851e+07  5.5351398723610945e+07  5.6876803579600930e+00  0.0000000000000000e+00  9.7032589473156333e+06  -3.1254166220300808e+06  -4.1940887064614259e+06  4.2355374804946448e+05  -2.7876375487147542e+06  2.1408167133642188e+06  -4.2926850819391115e+06  3.1029795613565356e+06  -4.0787691843686197e+06  1.5854824925419900e+06  -4.1213156534776385e+06  1.5423044394095363e+06  -5.4823748087366801e+06  1.4851213809220896e+06  -5.5263263566563986e+06  1.0381302564952491e+05  -4.2898736950669503e+06  -1.0508586787970562e+06  -4.6984415107316067e+06  9.9745018043410592e+05  -1.1111710842664510e+07  2.1413257968406375e+06  -1.6814673065085664e+07  5.3727405663707517e+06  -1.8673982901621521e+07  3.0524325469838469e+06  -1.7016753397623606e+07  -9.7058683028751123e+05  -5.0426672060980620e+06  4.8308117464129738e+00  -1.2476425418171884e-09  1.6132192298351606e+07  -7.5597165120289614e+06  3.6133878761756280e+06  -3.1132235535582565e+06  2.7360907815122013e+06  -4.2926850866551548e+06  3.6989962736141384e+06  -3.8223898804013836e+06  3.6616072589397179e+06  -3.8652309023631620e+06  5.9218462224862641e+06  -4.8443306439598957e+06  7.2995857200551145e+06  -4.6557052614200041e+06  7.9115616717350744e+06  -4.7176997301562065e+06  8.5146760928026978e+06  -5.5774773194732880e+06  1.1007838848344091e+07  -8.8954722919461969e+06  1.8465871235307019e+07  -1.1629245625264723e+07  2.2543457146962285e+07  -1.6814712333278306e+07  2.9389659366950825e+07  -1.9560629371937066e+07  2.7202903374266088e+07  -1.8400928278248426e+07  3.1743610156431630e+07  4.0746141671728884e+00  0.0000000000000000e+00  6.9141397012551073e+06  -6.0579487409364320e+06  -1.9380333174761196e+06  -1.9668575307306126e+05  -4.1490283088579969e+06  3.1029795797570474e+06  -3.8223898881540997e+06  3.1246688863907377e+06  -4.0024064833347406e+06  4.2806065391658759e+06  -4.9458251045545200e+06  3.3383610630726791e+06  -4.6781750800694609e+06  2.6991046287238509e+06  -5.1658356394027183e+06  2.2841777720989315e+06  -4.4503786801906554e+06  1.3998944194821094e+06  -5.8080792671391638e+06  2.4997880617893082e+06  -1.0531902694531281e+07  3.3898200651016710e+06  -1.1629318810857425e+07  2.1413846431179801e+06  -1.2945096636558263e+07  2.2996210999713815e+05  -1.0242703727626594e+07  -6.5718433060143692e+06  1.0399050864192664e+06  3.4108755198318077e+00  3.0276748672928494e-08  1.5100588033280289e+07  -8.3964100080061592e+06  6.2777106660261098e+06  -5.0525673017439032e+06  5.4142500320220757e+06  -4.0787691806292078e+06  3.6616072648246782e+06  -4.0024064874551012e+06  4.8608556419808809e+06  -4.8544642047852250e+06  4.7114513015123112e+06  -4.4755363773852009e+06  6.3423488737659855e+06  -5.6386160983190425e+06  7.5616793494315688e+06  -5.1545198369451221e+06  6.7485384433557391e+06  -5.2308646774800010e+06  1.0576793598508332e+07  -8.1547461459041964e+06  1.5134405635729952e+07  -1.0532027803823216e+07  1.8465973993686292e+07  -1.1111728888521157e+07  1.7878799793347187e+07  -8.4810048932680544e+06  1.6287693271256385e+07  -1.0637956759837871e+07  2.1700163089619134e+07  2.8317331002755717e+00  0.0000000000000000e+00  4.9726788959114701e+06  -7.0703639981523082e+06  -1.9925323955752032e+06  -1.7863474767778261e+05  -3.8105869235781198e+06  1.5854825206456794e+06  -3.8652309407974775e+06  4.2806065610702271e+06  -4.8544642177606476e+06  4.1023911530914833e+06  -4.4033489401202770e+06  5.1880841841347804e+06  -6.0032860404605456e+06  4.4978264086688003e+06  -4.8072727757383054e+06  2.2323344160458157e+06  -3.3459651539593390e+06  2.6948250060095578e+06  -7.6806735330396751e+06  4.2833575559256794e+06  -8.1549541997657157e+06  2.4999602595268274e+06  -8.8955009733443577e+06  9.9739201200033783e+05  -7.6816432722041653e+06  -3.6403211794561436e+06  -5.0175553323687306e+06  -8.9081373054950368e+06  1.6526321156935701e+06  2.3296738746204548e+00  0.0000000000000000e+00  1.4735076961422140e+07  -9.2287864251666144e+06  9.1701223454888109e+06  -5.9845706201063087e+06  6.2068780084927408e+06  -4.1213156323597101e+06  5.9218462505413825e+06  -4.9458251171436617e+06  4.7114513161531910e+06  -4.4033489451917680e+06  5.8278859727026550e+06  -6.3095647746793581e+06  5.6045596580448300e+06  -4.4821191572024617e+06  5.3006324912113585e+06  -4.1701814541627122e+06  6.1513576355662355e+06  -6.6366199344372367e+06  1.1069058516952675e+07  -7.6809967114024572e+06  1.0577067073710633e+07  -5.8081187482997458e+06  1.1007733142601203e+07  -4.6983498538787318e+06  1.0772626173656406e+07  -5.0651037001687251e+06  1.3429284375054393e+07  -9.2993643969125785e+06  1.8675385749576233e+07  1.8975339313400756e+00  0.0000000000000000e+00  3.0298707251200443e+06  -6.7445433623486189e+06  -2.3099059978344077e+06  -1.7106515652525474e+06  -3.0757121290362114e+06  1.5423045066409037e+06  -4.8443307443616502e+06  3.3383611079006912e+06  -4.4755364211913049e+06  5.1880842123033423e+06  -6.3095647979926793e+06  4.9766050759179424e+06  -3.9182972076360276e+06  4.3998352665087534e+06  -5.2456244345909497e+06  3.7629874824356167e+06  -4.9144203725479022e+06  4.5593121275757290e+06  -6.6370904016332515e+06  2.6952327583408263e+06  -5.2309180602480508e+06  1.3997157597033430e+06  -5.5773231406721566e+06  -1.0508828142904888e+06  -4.5735197442122959e+06  -3.5413611545819817e+06  -4.0906128003376224e+06  -8.2570910085699372e+06  1.0173199116326871e+06  1.5284990291384792e+00  -3.6622513114400266e-06  1.5349314520734167e+07  -9.5663121987014487e+06  1.0235213587458765e+07  -5.6645002312730672e+06  7.9290342054354781e+06  -5.4823748031622367e+06  7.2995857688274747e+06  -4.6781750817035502e+06  6.3423489179030163e+06  -6.0032860790999401e+06  5.6045596954126218e+06  -3.9182972160575353e+06  5.0157439299046313e+06  -6.5836628280403158e+06  5.6786252772258706e+06  -3.4096802458420196e+06  4.8353712866640128e+06  -4.9150503396173697e+06  6.1519218496081857e+06  -3.3460300776421991e+06  6.7482580703451652e+06  -4.4501337980288975e+06  8.5146409316649381e+06  -4.2899592252332820e+06  1.0332625743916688e+07  -6.5185276544362446e+06  1.2935553922952676e+07  -9.1568904994287994e+06  1.7049944501087014e+07  1.2161043230135931e+00  0.0000000000000000e+00  1.5764140160365691e+06  -7.2264270489732968e+06  -2.0615587610229277e+06  -2.5018104229141399e+06  -4.1835012893162258e+06  1.4851215063305201e+06  -4.6557054148902865e+06  2.6991047145645367e+06  -5.6386162294469029e+06  4.4978264920204617e+06  -4.4821192207276858e+06  4.3998352996050948e+06  -6.5836628706354406e+06  5.6553773017863454e+06  -2.0679420249131755e+06  6.3628244207073189e+05  -3.4104513587126494e+06  3.7637050651401044e+06  -4.1702559109001392e+06  2.2319306660361746e+06  -5.1541627922956180e+06  2.2841324358648430e+06  -4.7178435172208101e+06  1.0392537459160009e+05  -4.8862630319360653e+06  -2.2702545243637692e+06  -3.0858570821767719e+06  -7.9224377050098516e+06  1.0685386657124362e+06  9.5423441904453776e-01  7.4976577064942699e-09  1.6044373679388151e+07  -9.0438345575637855e+06  1.1216584386673858e+07  -6.4392999620700656e+06  1.0087210550648889e+07  -5.5263263592818957e+06  7.9115617439681087e+06  -5.1658356742050070e+06  7.5616794591812389e+06  -4.8072728308387240e+06  5.3006325724781426e+06  -5.2456245279303836e+06  5.6786253996938784e+06  -2.0679420765575680e+06  -2.1136334549458456e+05  -2.0687965743969681e+06  5.6794571649301192e+06  -5.2457036102973828e+06  5.3001037554861177e+06  -4.8067936806900613e+06  7.5616268190663820e+06  -5.1660556777655259e+06  7.9117353964245683e+06  -5.5263345622535972e+06  1.0087141609995782e+07  -6.4392583361815941e+06  1.1216588379354464e+07  -9.0438495332201626e+06  1.6044378698941173e+07  7.3712337439162789e-01  0.0000000000000000e+00  1.0685452214119518e+06  -7.9224396331302039e+06  -3.0858792315716660e+06  -2.2702155315187899e+06  -4.8862553279277040e+06  1.0381320802866256e+05  -4.7176999820002168e+06  2.2841779621612169e+06  -5.1545200833345996e+06  2.2323345783547135e+06  -4.1701816647718945e+06  3.7629876721317489e+06  -3.4096803952075569e+06  6.3628244203715934e+05  -2.0687965227411874e+06  5.6562516681771455e+06  -6.5837439453509236e+06  4.3992112331894850e+06  -4.4815346566467341e+06  4.4977713754796013e+06  -5.6389243108923724e+06  2.6993509082619664e+06  -4.6557123521753782e+06  1.4850100497685454e+06  -4.1834334335942199e+06  -2.5018019646316729e+06  -2.0615897262094095e+06  -7.2264146011421569e+06  1.5764157225260644e+06  5.5935469729637088e-01  7.7033590955826834e-09  1.7049944290281255e+07  -9.1569019617388751e+06  1.2935574355328478e+07  -6.5185229454270452e+06  1.0332559140923895e+07  -4.2898737232033061e+06  8.5146762559004854e+06  -4.4503787902917145e+06  6.7485386266672881e+06  -3.3459652553412411e+06  6.1513578054217473e+06  -4.9144204597868808e+06  4.8353712865870204e+06  -3.4104512092519896e+06  5.6794570424722750e+06  -6.5837439027533112e+06  5.0150839735528613e+06  -3.9176504182348619e+06  5.6045052478569308e+06  -6.0036735673589436e+06  6.3426660085557755e+06  -4.6781760486234287e+06  7.2994209808407705e+06  -5.4822722494302010e+06  7.9290495301332790e+06  -5.6645525925798006e+06  1.0235235664737549e+07  -9.5663047875365764e+06  1.5349306297585510e+07  4.1586133940500891e-01  0.0000000000000000e+00  1.0173168854253585e+06  -8.2570820456479155e+06  -4.0906090926615740e+06  -3.5413980229952084e+06  -4.5734714172946438e+06  -1.0508583989332442e+06  -5.5774777123874202e+06  1.3998946763395153e+06  -5.2308649605350802e+06  2.6948251483008359e+06  -6.6366201041164184e+06  4.5593121275264714e+06  -4.9150502522332380e+06  3.7637048753280058e+06  -5.2457035170109356e+06  4.3992112000723658e+06  -3.9176504098195815e+06  4.9765514023234202e+06  -6.3100005416023694e+06  5.1884538948555999e+06  -4.4755299122302067e+06  3.3381414369562222e+06  -4.8441918800051967e+06  1.5423303569128793e+06  -3.0757943505866975e+06  -1.7106161597082592e+06  -2.3098920149824186e+06  -6.7445629345690086e+06  3.0298746647464763e+06  3.0192573415081086e-01  -8.2298557378547960e-09  1.8675389116742477e+07  -9.2993632167804949e+06  1.3429265749835467e+07  -5.0650790993053485e+06  1.0772641532091329e+07  -4.6984415430534212e+06  1.1007839024597816e+07  -5.8080792799597932e+06  1.0576793670752849e+07  -7.6806734751815926e+06  1.1069058516833242e+07  -6.6370902319071544e+06  6.1519216796839507e+06  -4.1702557001356483e+06  5.3001036743386667e+06  -4.4815345930607161e+06  5.6045052105185604e+06  -6.3100005182819786e+06  5.8282751341133555e+06  -4.4033365927980058e+06  4.7111892546210224e+06  -4.9456544206023291e+06  5.9218843671650514e+06  -4.1214304918871038e+06  6.2069282001729514e+06  -5.9845457033557668e+06  9.1700869828360435e+06  -9.2287769661656022e+06  1.4735082326288138e+07  2.1317971998948795e-01  0.0000000000000000e+00  1.6526342804361305e+06  -8.9081461666809916e+06  -5.0175424669195972e+06  -3.6403126195123387e+06  -7.6816931343445461e+06  9.9745044137539575e+05  -8.8954726360213049e+06  2.4997881567201456e+06  -8.1547463050219556e+06  4.2833575554791773e+06  -7.6809967687374316e+06  2.6952326160377800e+06  -3.3460299763370901e+06  2.2319305034919032e+06  -4.8067936258070143e+06  4.4977712919904627e+06  -6.0036735287940828e+06  5.1884538666533530e+06  -4.4033365877317423e+06  4.1021130560146989e+06  -4.8542753185298638e+06  4.2806551944091097e+06  -3.8653759100769688e+06  1.5855469819610845e+06  -3.8105502659850651e+06  -1.7868815733662969e+05  -1.9925188945242665e+06  -7.0703502999909865e+06  4.9726688175504878e+06  1.4560461716377843e-01  0.0000000000000000e+00  2.1700160519822013e+07  -1.0637952220722221e+07  1.6287697796999777e+07  -8.4810313405761663e+06  1.7878830005876824e+07  -1.1111710760604136e+07  1.8465871310167093e+07  -1.0531902545554021e+07  1.5134405635493822e+07  -8.1549540398259973e+06  1.0577067000719529e+07  -5.2309177771375291e+06  6.7482578873187546e+06  -5.1541625454986645e+06  7.5616267096861303e+06  -5.6389241794870151e+06  6.3426659645818444e+06  -4.4755298683356000e+06  4.7111892400150029e+06  -4.8542753055495964e+06  4.8609084431310631e+06  -4.0025692311595390e+06  3.6616818488297598e+06  -4.0787205920594381e+06  5.4141782279004930e+06  -5.0525486782767382e+06  6.2777338161122818e+06  -8.3964299268655367e+06  1.5100590380925443e+07  9.5531206491361001e-02  0.0000000000000000e+00  1.0399084650388152e+06  -6.5718416541093485e+06  -1.0242715082168993e+07  2.2997629122150480e+05  -1.2945084166050466e+07  2.1413259568786887e+06  -1.1629245916852025e+07  3.3898200642663529e+06  -1.0532027952454967e+07  2.4999601642559110e+06  -5.8081187346558450e+06  1.3997155026271604e+06  -4.4501336885256451e+06  2.2841322450685999e+06  -5.1660556436149245e+06  2.6993508219064744e+06  -4.6781760473371856e+06  3.3381413919298337e+06  -4.9456544081161469e+06  4.2806551724689268e+06  -4.0025692270438829e+06  3.1247471593933157e+06  -3.8223342239227677e+06  3.1028940580931194e+06  -4.1490065741945794e+06  -1.9665231119722978e+05  -1.9380648500366779e+06  -6.0579449513029512e+06  6.9141467437723931e+06  5.9639651190283652e-02  -1.1029025241772487e-08  3.1743611337735049e+07  -1.8400933989979584e+07  2.7202909280929409e+07  -1.9560622638558216e+07  2.9389627161322050e+07  -1.6814672834163483e+07  2.2543457145108208e+07  -1.1629318515758015e+07  1.8465973917928338e+07  -8.8955006296269223e+06  1.1007732965617733e+07  -5.5773227471428588e+06  8.5146407697122004e+06  -4.7178432640587287e+06  7.9117353253792953e+06  -4.6557121977566630e+06  7.2994209327573795e+06  -4.8441917791662393e+06  5.9218843393532056e+06  -3.8653758715246851e+06  3.6616818429824864e+06  -3.8223342161665424e+06  3.6989055958789526e+06  -4.2926613357171034e+06  2.7361319463103325e+06  -3.1132638568461756e+06  3.6133914603838488e+06  -7.5597002764861761e+06  1.6132183726070033e+07  3.4959668581023153e-02  0.0000000000000000e+00  -5.0426664456005413e+06  -9.7058539139333833e+05  -1.7016747812962342e+07  3.0524153617864265e+06  -1.8673960869373288e+07  5.3727405673310896e+06  -1.6814712564714339e+07  2.1413844789015730e+06  -1.1111728968229976e+07  9.9739175223935989e+05  -4.6983498212172762e+06  -1.0508830956178780e+06  -4.2899591993432753e+06  1.0392518977119069e+05  -5.5263345618593190e+06  1.4850099225501423e+06  -5.4822722563604852e+06  1.5423302887601759e+06  -4.1214305135669252e+06  1.5855469535561744e+06  -4.0787205959365750e+06  3.1028940396516118e+06  -4.2926613310048683e+06  2.1408608436436099e+06  -2.7876833985365597e+06  4.2355722809135687e+05  -4.1940658765338804e+06  -3.1254315023035565e+06  9.7032580482854322e+06  1.8870358384425658e-02  0.0000000000000000e+00  5.5351399221985586e+07  -3.0033436137516126e+07  4.2057891672422476e+07  -2.8003476827921867e+07  3.4435299739700243e+07  -1.8673982312509507e+07  2.9389659212882403e+07  -1.2945096095960112e+07  1.7878799644818101e+07  -7.6816427749901507e+06  1.0772626015723696e+07  -4.5735193179694405e+06  1.0332625629147049e+07  -4.8862627246342497e+06  1.0087141545217931e+07  -4.1834332304114657e+06  7.9290495123893628e+06  -3.0757942295381622e+06  6.2069281924071135e+06  -3.8105501799836480e+06  5.4141782090558754e+06  -4.1490065308281071e+06  2.7361319421710162e+06  -2.7876833941331012e+06  1.2087288584925563e+06  -4.1390249448572868e+06  1.3349940462374666e+06  -3.4113391697848258e+06  1.6945978611716554e+07  9.1002885727361378e-03  0.0000000000000000e+00  -1.6628661269631198e+07  2.9006589757006783e+06  -2.7471658522092693e+07  1.1084699209653635e+07  -2.8003487261929352e+07  3.0524322335236082e+06  -1.956