<?xml version="1.0"?>
<VTKFile type="UnstructuredGrid"  version="0.1"  >
<UnstructuredGrid>
<Piece  NumberOfPoints="961" NumberOfCells="1800">
<Points>
<DataArray  type="Float64"  NumberOfComponents="3"  format="ascii">-1 -1 0  -0.9333333333333333 -1 0  -0.8666666666666667 -1 0  -0.8 -1 0  -0.7333333333333334 -1 0  -0.6666666666666667 -1 0  -0.6 -1 0  -0.5333333333333333 -1 0  -0.4666666666666667 -1 0  -0.4 -1 0  -0.3333333333333334 -1 0  -0.2666666666666667 -1 0  -0.2 -1 0  -0.1333333333333333 -1 0  -0.06666666666666665 -1 0  0 -1 0  0.06666666666666665 -1 0  0.1333333333333333 -1 0  0.2 -1 0  0.2666666666666666 -1 0  0.3333333333333333 -1 0  0.3999999999999999 -1 0  0.4666666666666666 -1 0  0.5333333333333334 -1 0  0.6000000000000001 -1 0  0.6666666666666667 -1 0  0.7333333333333334 -1 0  0.8 -1 0  0.8666666666666667 -1 0  0.9333333333333333 -1 0  1 -1 0  -1 -0.9333333333333333 0  -0.9333333333333333 -0.9333333333333333 0  -0.8666666666666667 -0.9333333333333333 0  -0.8 -0.9333333333333333 0  -0.7333333333333334 -0.9333333333333333 0  -0.6666666666666667 -0.9333333333333333 0  -0.6 -0.9333333333333333 0  -0.5333333333333333 -0.9333333333333333 0  -0.4666666666666667 -0.9333333333333333 0  -0.4 -0.9333333333333333 0  -0.3333333333333334 -0.9333333333333333 0  -0.2666666666666667 -0.9333333333333333 0  -0.2 -0.9333333333333333 0  -0.1333333333333333 -0.9333333333333333 0  -0.06666666666666665 -0.9333333333333333 0  0 -0.9333333333333333 0  0.06666666666666665 -0.9333333333333333 0  0.1333333333333333 -0.9333333333333333 0  0.2 -0.9333333333333333 0  0.2666666666666666 -0.9333333333333333 0  0.3333333333333333 -0.9333333333333333 0  0.3999999999999999 -0.9333333333333333 0  0.4666666666666666 -0.9333333333333333 0  0.5333333333333334 -0.9333333333333333 0  0.6000000000000001 -0.9333333333333333 0  0.6666666666666667 -0.9333333333333333 0  0.7333333333333334 -0.9333333333333333 0  0.8 -0.9333333333333333 0  0.8666666666666667 -0.9333333333333333 0  0.9333333333333333 -0.9333333333333333 0  1 -0.9333333333333333 0  -1 -0.8666666666666667 0  -0.9333333333333333 -0.8666666666666667 0  -0.8666666666666667 -0.8666666666666667 0  -0.8 -0.8666666666666667 0  -0.7333333333333334 -0.8666666666666667 0  -0.6666666666666667 -0.8666666666666667 0  -0.6 -0.8666666666666667 0  -0.5333333333333333 -0.8666666666666667 0  -0.4666666666666667 -0.8666666666666667 0  -0.4 -0.8666666666666667 0  -0.3333333333333334 -0.8666666666666667 0  -0.2666666666666667 -0.8666666666666667 0  -0.2 -0.8666666666666667 0  -0.1333333333333333 -0.8666666666666667 0  -0.06666666666666665 -0.8666666666666667 0  0 -0.8666666666666667 0  0.06666666666666665 -0.8666666666666667 0  0.1333333333333333 -0.8666666666666667 0  0.2 -0.8666666666666667 0  0.2666666666666666 -0.8666666666666667 0  0.3333333333333333 -0.8666666666666667 0  0.3999999999999999 -0.8666666666666667 0  0.4666666666666666 -0.8666666666666667 0  0.5333333333333334 -0.8666666666666667 0  0.6000000000000001 -0.8666666666666667 0  0.6666666666666667 -0.8666666666666667 0  0.7333333333333334 -0.8666666666666667 0  0.8 -0.8666666666666667 0  0.8666666666666667 -0.8666666666666667 0  0.9333333333333333 -0.8666666666666667 0  1 -0.8666666666666667 0  -1 -0.8 0  -0.9333333333333333 -0.8 0  -0.8666666666666667 -0.8 0  -0.8 -0.8 0  -0.7333333333333334 -0.8 0  -0.6666666666666667 -0.8 0  -0.6 -0.8 0  -0.5333333333333333 -0.8 0  -0.4666666666666667 -0.8 0  -0.4 -0.8 0  -0.3333333333333334 -0.8 0  -0.2666666666666667 -0.8 0  -0.2 -0.8 0  -0.1333333333333333 -0.8 0  -0.06666666666666665 -0.8 0  0 -0.8 0  0.06666666666666665 -0.8 0  0.1333333333333333 -0.8 0  0.2 -0.8 0  0.2666666666666666 -0.8 0  0.3333333333333333 -0.8 0  0.3999999999999999 -0.8 0  0.4666666666666666 -0.8 0  0.5333333333333334 -0.8 0  0.6000000000000001 -0.8 0  0.6666666666666667 -0.8 0  0.7333333333333334 -0.8 0  0.8 -0.8 0  0.8666666666666667 -0.8 0  0.9333333333333333 -0.8 0  1 -0.8 0  -1 -0.7333333333333334 0  -0.9333333333333333 -0.7333333333333334 0  -0.8666666666666667 -0.7333333333333334 0  -0.8 -0.7333333333333334 0  -0.7333333333333334 -0.7333333333333334 0  -0.6666666666666667 -0.7333333333333334 0  -0.6 -0.7333333333333334 0  -0.5333333333333333 -0.7333333333333334 0  -0.4666666666666667 -0.7333333333333334 0  -0.4 -0.7333333333333334 0  -0.3333333333333334 -0.7333333333333334 0  -0.2666666666666667 -0.7333333333333334 0  -0.2 -0.7333333333333334 0  -0.1333333333333333 -0.7333333333333334 0  -0.06666666666666665 -0.7333333333333334 0  0 -0.7333333333333334 0  0.06666666666666665 -0.7333333333333334 0  0.1333333333333333 -0.7333333333333334 0  0.2 -0.7333333333333334 0  0.2666666666666666 -0.7333333333333334 0  0.3333333333333333 -0.7333333333333334 0  0.3999999999999999 -0.7333333333333334 0  0.4666666666666666 -0.7333333333333334 0  0.5333333333333334 -0.7333333333333334 0  0.6000000000000001 -0.7333333333333334 0  0.6666666666666667 -0.7333333333333334 0  0.7333333333333334 -0.7333333333333334 0  0.8 -0.7333333333333334 0  0.8666666666666667 -0.7333333333333334 0  0.9333333333333333 -0.7333333333333334 0  1 -0.7333333333333334 0  -1 -0.6666666666666667 0  -0.9333333333333333 -0.6666666666666667 0  -0.8666666666666667 -0.6666666666666667 0  -0.8 -0.6666666666666667 0  -0.7333333333333334 -0.6666666666666667 0  -0.6666666666666667 -0.6666666666666667 0  -0.6 -0.6666666666666667 0  -0.5333333333333333 -0.6666666666666667 0  -0.4666666666666667 -0.6666666666666667 0  -0.4 -0.6666666666666667 0  -0.3333333333333334 -0.6666666666666667 0  -0.2666666666666667 -0.6666666666666667 0  -0.2 -0.6666666666666667 0  -0.1333333333333333 -0.6666666666666667 0  -0.06666666666666665 -0.6666666666666667 0  0 -0.6666666666666667 0  0.06666666666666665 -0.6666666666666667 0  0.1333333333333333 -0.6666666666666667 0  0.2 -0.6666666666666667 0  0.2666666666666666 -0.6666666666666667 0  0.3333333333333333 -0.6666666666666667 0  0.3999999999999999 -0.6666666666666667 0  0.4666666666666666 -0.6666666666666667 0  0.5333333333333334 -0.6666666666666667 0  0.6000000000000001 -0.6666666666666667 0  0.6666666666666667 -0.6666666666666667 0  0.7333333333333334 -0.6666666666666667 0  0.8 -0.6666666666666667 0  0.8666666666666667 -0.6666666666666667 0  0.9333333333333333 -0.6666666666666667 0  1 -0.6666666666666667 0  -1 -0.6 0  -0.9333333333333333 -0.6 0  -0.8666666666666667 -0.6 0  -0.8 -0.6 0  -0.7333333333333334 -0.6 0  -0.6666666666666667 -0.6 0  -0.6 -0.6 0  -0.5333333333333333 -0.6 0  -0.4666666666666667 -0.6 0  -0.4 -0.6 0  -0.3333333333333334 -0.6 0  -0.2666666666666667 -0.6 0  -0.2 -0.6 0  -0.1333333333333333 -0.6 0  -0.06666666666666665 -0.6 0  0 -0.6 0  0.06666666666666665 -0.6 0  0.1333333333333333 -0.6 0  0.2 -0.6 0  0.2666666666666666 -0.6 0  0.3333333333333333 -0.6 0  0.3999999999999999 -0.6 0  0.4666666666666666 -0.6 0  0.5333333333333334 -0.6 0  0.6000000000000001 -0.6 0  0.6666666666666667 -0.6 0  0.7333333333333334 -0.6 0  0.8 -0.6 0  0.8666666666666667 -0.6 0  0.9333333333333333 -0.6 0  1 -0.6 0  -1 -0.5333333333333333 0  -0.9333333333333333 -0.5333333333333333 0  -0.8666666666666667 -0.5333333333333333 0  -0.8 -0.5333333333333333 0  -0.7333333333333334 -0.5333333333333333 0  -0.6666666666666667 -0.5333333333333333 0  -0.6 -0.5333333333333333 0  -0.5333333333333333 -0.5333333333333333 0  -0.4666666666666667 -0.5333333333333333 0  -0.4 -0.5333333333333333 0  -0.3333333333333334 -0.5333333333333333 0  -0.2666666666666667 -0.5333333333333333 0  -0.2 -0.5333333333333333 0  -0.1333333333333333 -0.5333333333333333 0  -0.06666666666666665 -0.5333333333333333 0  0 -0.5333333333333333 0  0.06666666666666665 -0.5333333333333333 0  0.1333333333333333 -0.5333333333333333 0  0.2 -0.5333333333333333 0  0.2666666666666666 -0.5333333333333333 0  0.3333333333333333 -0.5333333333333333 0  0.3999999999999999 -0.5333333333333333 0  0.4666666666666666 -0.5333333333333333 0  0.5333333333333334 -0.5333333333333333 0  0.6000000000000001 -0.5333333333333333 0  0.6666666666666667 -0.5333333333333333 0  0.7333333333333334 -0.5333333333333333 0  0.8 -0.5333333333333333 0  0.8666666666666667 -0.5333333333333333 0  0.9333333333333333 -0.5333333333333333 0  1 -0.5333333333333333 0  -1 -0.4666666666666667 0  -0.9333333333333333 -0.4666666666666667 0  -0.8666666666666667 -0.4666666666666667 0  -0.8 -0.4666666666666667 0  -0.7333333333333334 -0.4666666666666667 0  -0.6666666666666667 -0.4666666666666667 0  -0.6 -0.4666666666666667 0  -0.5333333333333333 -0.4666666666666667 0  -0.4666666666666667 -0.4666666666666667 0  -0.4 -0.4666666666666667 0  -0.3333333333333334 -0.4666666666666667 0  -0.2666666666666667 -0.4666666666666667 0  -0.2 -0.4666666666666667 0  -0.1333333333333333 -0.4666666666666667 0  -0.06666666666666665 -0.4666666666666667 0  0 -0.4666666666666667 0  0.06666666666666665 -0.4666666666666667 0  0.1333333333333333 -0.4666666666666667 0  0.2 -0.4666666666666667 0  0.2666666666666666 -0.4666666666666667 0  0.3333333333333333 -0.4666666666666667 0  0.3999999999999999 -0.4666666666666667 0  0.4666666666666666 -0.4666666666666667 0  0.5333333333333334 -0.4666666666666667 0  0.6000000000000001 -0.4666666666666667 0  0.6666666666666667 -0.4666666666666667 0  0.7333333333333334 -0.4666666666666667 0  0.8 -0.4666666666666667 0  0.8666666666666667 -0.4666666666666667 0  0.9333333333333333 -0.4666666666666667 0  1 -0.4666666666666667 0  -1 -0.4 0  -0.9333333333333333 -0.4 0  -0.8666666666666667 -0.4 0  -0.8 -0.4 0  -0.7333333333333334 -0.4 0  -0.6666666666666667 -0.4 0  -0.6 -0.4 0  -0.5333333333333333 -0.4 0  -0.4666666666666667 -0.4 0  -0.4 -0.4 0  -0.3333333333333334 -0.4 0  -0.2666666666666667 -0.4 0  -0.2 -0.4 0  -0.1333333333333333 -0.4 0  -0.06666666666666665 -0.4 0  0 -0.4 0  0.06666666666666665 -0.4 0  0.1333333333333333 -0.4 0  0.2 -0.4 0  0.2666666666666666 -0.4 0  0.3333333333333333 -0.4 0  0.3999999999999999 -0.4 0  0.4666666666666666 -0.4 0  0.5333333333333334 -0.4 0  0.6000000000000001 -0.4 0  0.6666666666666667 -0.4 0  0.7333333333333334 -0.4 0 
[...]
<PointData  Scalars="f_24"> 
<DataArray  type="Float64"  Name="f_24"  format="ascii">0.0000000000000000e+00  0.0000000000000000e+00  0.0000000000000000e+00  0.0000000000000000e+00  0.0000000000000000e+00  0.0000000000000000e+00  0.0000000000000000e+00  0.0000000000000000e+00  0.0000000000000000e+00  0.0000000000000000e+00  0.0000000000000000e+00  0.0000000000000000e+00  0.0000000000000000e+00  0.0000000000000000e+00  0.0000000000000000e+00  0.0000000000000000e+00  0.0000000000000000e+00  0.0000000000000000e+00  0.0000000000000000e+00  0.0000000000000000e+00  0.0000000000000000e+00  0.0000000000000000e+00  0.0000000000000000e+00  0.0000000000000000e+00  0.0000000000000000e+00  -1.2470348362771794e-07  0.0000000000000000e+00  2.2027466046475352e-07  0.0000000000000000e+00  0.0000000000000000e+00  1.1972217081257046e+01  0.0000000000000000e+00  1.0938891617928477e+07  1.1959531924275719e+07  1.7403663431239083e+07  1.2554331108431434e+07  1.7189352770149305e+07  9.8354642581525184e+06  1.6360128708509283e+07  7.0015862138179177e+06  1.5310815954059213e+07  5.0291054805204496e+06  1.4938482781044381e+07  3.0559712812089887e+06  1.5561322320923431e+07  1.5801217735807637e+06  1.6266682815628396e+07  1.0645913465131186e+06  1.7287675571992598e+07  1.0130404577573956e+06  1.8938382412461963e+07  1.6589358001267305e+06  2.2010160131868556e+07  1.0386092866202693e+06  3.2207466383393530e+07  -5.1333520672539957e+06  5.6175083186237276e+07  -1.6890834770550098e+07  9.3068955648648635e+07  -1.0381426675663961e+07  2.0239120024288601e+08  1.0453977369689586e+01  0.0000000000000000e+00  1.1959531905378725e+07  1.3163082917236410e+07  5.3318127486572033e+06  2.4112027724079723e+06  -3.4820598392084655e+06  -3.1923951547683799e+06  -7.6935115720443930e+06  -6.1683118245945517e+06  -8.5410555055423509e+06  -7.1937837704483308e+06  -9.3836611095328256e+06  -6.8608553965252331e+06  -9.7244714500471447e+06  -7.3487144074831149e+06  -9.1933866898974851e+06  -8.0551714081320576e+06  -9.3087249878859501e+06  -8.3960244463287871e+06  -9.4549969050276950e+06  -9.0589500411322843e+06  -1.0816008931356799e+07  -6.6894470121110640e+06  -1.8698017531056922e+07  -1.0044689163030477e+06  -3.0506051734437376e+07  2.9271829764236067e+06  -2.6379254822751503e+07  -1.6253500738223629e+07  -1.0381434211909693e+07  9.0849321757624111e+00  -1.0768680752494630e-08  1.7403663423129890e+07  5.3318127519793268e+06  1.9709518316362167e+06  -4.1336168513367884e+06  1.3372120177407030e+06  -4.2724124902698509e+06  3.6569879312336314e+06  -1.9741329526886197e+06  6.3698127291220771e+06  -2.0218354914324952e+06  9.3124993870740496e+06  -2.3387136227056757e+06  1.0397630952674467e+07  -2.0840098354431754e+06  1.1395123400136184e+07  -3.1238032231455063e+06  1.3138818305460831e+07  -4.1462824331555632e+06  1.3636092963798862e+07  -5.0923998389307326e+06  1.6531333684044534e+07  -1.0403915816299668e+07  2.7603558908642776e+07  -1.7288156106738064e+07  4.2676276118824139e+07  -2.7905561456824392e+07  5.1054482549685918e+07  -2.6379254304452244e+07  9.3068957112558141e+07  7.8549717892295652e+00  0.0000000000000000e+00  1.2554331049789311e+07  2.4112027907080003e+06  -4.1336168568149861e+06  6.0226711670765153e+05  -4.2126003844934180e+06  4.2599431585043896e+05  -3.1572210718144453e+06  -1.9046009558539794e+05  -5.1148157191853784e+06  -1.6359384265301924e+05  -6.0547573417715626e+06  -1.7146295394553281e+06  -5.7272674487240389e+06  -2.5163035320037156e+06  -6.5131748280865680e+06  -2.2812891292618020e+06  -6.5943515588492164e+06  -3.5732583800483104e+06  -5.1216231886674985e+06  -3.6778446913645151e+06  -8.5953075436467323e+06  2.4254432417617485e+05  -1.9853101315267932e+07  3.0949306211362686e+06  -2.8437062724935755e+07  1.1236298551540518e+07  -2.7905569385465320e+07  2.9271883275217102e+06  -1.6890841079997376e+07  6.7543405838574317e+00  -8.0399801313877371e-09  1.7189352753567711e+07  -3.4820598044276154e+06  1.3372120238097920e+06  -4.2126003879457125e+06  1.2255763250369148e+06  -2.8217851219392573e+06  2.7929667774974178e+06  -4.1910914676296948e+06  5.5195977903280426e+06  -3.8434610765885869e+06  6.3255226477718614e+06  -3.0977629533499526e+06  8.0727455117395986e+06  -4.2232820091720559e+06  1.0262908629576864e+07  -4.9367459078598125e+06  1.0512411202867851e+07  -4.6184332902124170e+06  1.0959914682111165e+07  -7.7735132930326806e+06  1.8172061190372594e+07  -1.3120535566356268e+07  2.9848963875790026e+07  -1.8948290180787377e+07  3.4954545459672511e+07  -2.8437072302702166e+07  4.2676285140509717e+07  -3.0506052710887555e+07  5.6175082685952730e+07  5.7736386387234990e+00  0.0000000000000000e+00  9.8354641728755161e+06  -3.1923951027219500e+06  -4.2724125389979687e+06  4.2599432667608705e+05  -2.8217851264041127e+06  2.1905226951598781e+06  -4.3347468858811231e+06  3.1745895536578391e+06  -4.1162458230463839e+06  1.6317635347833384e+06  -4.1635047244543158e+06  1.5836526709174851e+06  -5.5487593403444728e+06  1.5230535483890346e+06  -5.5946858326133443e+06  1.2084370592845457e+05  -4.3383008813489098e+06  -1.0488261542500043e+06  -4.7495716908751652e+06  1.0344977150647326e+06  -1.1255955300818697e+07  2.1978193968907516e+06  -1.7046555698388778e+07  5.4708587209222326e+06  -1.8948313128247738e+07  3.0949483526675664e+06  -1.7288162860006742e+07  -1.0044696818810933e+06  -5.1333542146613477e+06  4.9038201164828870e+00  4.9905701672687536e-09  1.6360128699680984e+07  -7.6935115206554811e+06  3.6569879263791223e+06  -3.1572210522999312e+06  2.7929667817470888e+06  -4.3347468906677030e+06  3.7796127645488917e+06  -3.8572361828921833e+06  3.7363451375887529e+06  -3.9080282903233296e+06  6.0237006901010973e+06  -4.9076358615631191e+06  7.4181674161117310e+06  -4.7187215997238709e+06  8.0381849710998805e+06  -4.7816279145025611e+06  8.6516607417580634e+06  -5.6518265017758738e+06  1.1186554319811255e+07  -9.0143754099106025e+06  1.8764104400706604e+07  -1.1782502367377205e+07  2.2908281174858302e+07  -1.7046595560045309e+07  2.9848996730011933e+07  -1.9853107929802001e+07  2.7603553059566971e+07  -1.8698011199779019e+07  3.2207465362996493e+07  4.1361940743654966e+00  0.0000000000000000e+00  7.0015861010580603e+06  -6.1683117511005756e+06  -1.9741330328892581e+06  -1.9046006665222356e+05  -4.1910915114835803e+06  3.1745895723374826e+06  -3.8572361907619624e+06  3.1901720068028732e+06  -4.0496611759688770e+06  4.3543489655098859e+06  -5.0144866915538739e+06  3.3929863713158583e+06  -4.7458089062498268e+06  2.7423949500351069e+06  -5.2415563521977700e+06  2.3212397185108629e+06  -4.5144870464963792e+06  1.4253328752745159e+06  -5.8896610678236792e+06  2.5466853184041893e+06  -1.0677859453283137e+07  3.4591227654721462e+06  -1.1782576659028716e+07  2.1978791325170272e+06  -1.3120548773170749e+07  2.4253026263930049e+05  -1.0403905098482300e+07  -6.6894482167868828e+06  1.0386049294571463e+06  3.4624243019591989e+00  1.4057061883859658e-08  1.5310815954753209e+07  -8.5410554305378664e+06  6.3698127122388640e+06  -5.1148156913439929e+06  5.5195978098450918e+06  -4.1162458192493864e+06  3.7363451435626396e+06  -4.0496611801495710e+06  4.9423330742480168e+06  -4.9233440152118467e+06  4.7850564940867992e+06  -4.5418756841060147e+06  6.4389573666729331e+06  -5.7233070414183373e+06  7.6764234112969805e+06  -5.2318685862473557e+06  6.8513445275879251e+06  -5.3085170381031120e+06  1.0739187000564026e+07  -8.2733448924459619e+06  1.5371253506535877e+07  -1.0677986453359855e+07  1.8764208712079726e+07  -1.1255973619405400e+07  1.8172030666550945e+07  -8.5952805510518160e+06  1.6531329200220181e+07  -1.0816013262206327e+07  2.2010162987365033e+07  2.8745292608849571e+00  0.0000000000000000e+00  5.0291053452814454e+06  -7.1937836822433881e+06  -2.0218356221132188e+06  -1.6359376873830502e+05  -3.8434611631405707e+06  1.6317635633129487e+06  -3.9080283293389669e+06  4.3543489877453810e+06  -4.9233440283853533e+06  4.1663303965800055e+06  -4.4691516384746339e+06  5.2667417528604995e+06  -6.0939329809814803e+06  4.5658182320942041e+06  -4.8799079310005512e+06  2.2661022742564031e+06  -3.3964225381601206e+06  2.7358514582924149e+06  -7.7959140224429686e+06  4.3501665479351627e+06  -8.2735560906389486e+06  2.5468601185774626e+06  -9.0144045247723274e+06  1.0344386675271421e+06  -7.7734631841092482e+06  -3.6778530371922115e+06  -5.0924135512536401e+06  -9.0589406448532883e+06  1.6589329338510160e+06  2.3648823864211463e+00  -7.9196399083078995e-09  1.4938482794933399e+07  -9.3836610287034959e+06  9.3124993882125411e+06  -6.0547573054794353e+06  6.3255226569316685e+06  -4.1635047030169209e+06  6.0237007185796145e+06  -5.0144867043328984e+06  4.7850565089487489e+06  -4.4691516436202805e+06  5.9161047974489853e+06  -6.4049316678261552e+06  5.6892167143561002e+06  -4.5498963531418499e+06  5.3807004500012081e+06  -4.2332452439184859e+06  6.2442894986383012e+06  -6.7368995769605171e+06  1.1236546640734136e+07  -7.7962420850211149e+06  1.0739464608814759e+07  -5.8897011456651259e+06  1.1186447016530743e+07  -4.7494786488054292e+06  1.0959899252697596e+07  -5.1216481187682664e+06  1.3636112008490529e+07  -9.4549979716181476e+06  1.8938379192463823e+07  1.9262114842549374e+00  0.0000000000000000e+00  3.0559711057589105e+06  -6.8608552732150648e+06  -2.3387138105379567e+06  -1.7146294444070896e+06  -3.0977630742640323e+06  1.5836527391644390e+06  -4.9076359634815222e+06  3.3929864168217951e+06  -4.5418757285745768e+06  5.2667417814548509e+06  -6.4049316914944546e+06  5.0517762463218821e+06  -3.9775380024147090e+06  4.4663113864145214e+06  -5.3249100199540500e+06  3.8198397094258615e+06  -4.9887145446373485e+06  4.6281707856405051e+06  -6.7373771543586869e+06  2.7362653730095685e+06  -5.3085712276502587e+06  1.4251515153987447e+06  -5.6516699928608695e+06  -1.0488506545070291e+06  -4.6184827766339127e+06  -3.5732206458619311e+06  -4.1462866989008295e+06  -8.3960332519343514e+06  1.0130430805384495e+06  1.5515993337309131e+00  -1.9148099420774732e-06  1.5561322364893705e+07  -9.7244713662229888e+06  1.0397630957182981e+07  -5.7272673846928170e+06  8.0727455325367637e+06  -5.5487593346856628e+06  7.4181674656215534e+06  -4.7458089079084434e+06  6.4389574114764892e+06  -6.0939330202044649e+06  5.6892167522884514e+06  -3.9775380109622362e+06  5.0915273162226835e+06  -6.6831684293776173e+06  5.7644308775672680e+06  -3.4612231077488172e+06  4.9084357099941187e+06  -4.9893540324369706e+06  6.2448622396822413e+06  -3.3964884430379514e+06  6.8510599172809627e+06  -4.5142384634133615e+06  8.6516250492269881e+06  -4.3383877041356266e+06  1.0512478933659323e+07  -6.5943563141052127e+06  1.3138797646083439e+07  -9.3087132327318434e+06  1.7287675902330413e+07  1.2344833862267528e+00  0.0000000000000000e+00  1.5801215390169164e+06  -7.3487142577696685e+06  -2.0840100696569195e+06  -2.5163034028851497e+06  -4.2232822117691208e+06  1.5230536756924163e+06  -4.7187217555147158e+06  2.7423950371702658e+06  -5.7233071745280232e+06  4.5658183167049056e+06  -4.5498964176261416e+06  4.4663114200115213e+06  -6.6831684726179149e+06  5.7408399162096847e+06  -2.0991979055684530e+06  6.4589476370273763e+05  -3.4620058744978346e+06  3.8205681370029147e+06  -4.2333208259269595e+06  2.2656924223449370e+06  -5.2315061455593463e+06  2.3211936971063670e+06  -4.7817738746291464e+06  1.2095775280614514e+05  -4.9367540353422910e+06  -2.2813284970443174e+06  -3.1237810748679265e+06  -8.0551692612179806e+06  1.0645843815236301e+06  9.6865582547810092e-01  7.4976577064942699e-09  1.6266682889614318e+07  -9.1933865798226632e+06  1.1395123417106997e+07  -6.5131747740071639e+06  1.0262908699775407e+07  -5.5946858352797339e+06  8.0381850444234340e+06  -5.2415563875248143e+06  7.6764235227052821e+06  -4.8799079869330619e+06  5.3807005324967606e+06  -5.3249101147037167e+06  5.7644310018854560e+06  -2.0991979579913388e+06  -2.1457272878447719e+05  -2.1000653699142402e+06  5.7652753376417458e+06  -5.3249903922460238e+06  5.3801637234585499e+06  -4.8794215953569300e+06  7.6763700870358599e+06  -5.2417797160131745e+06  8.0383613213015078e+06  -5.5946941622214401e+06  1.0262838717217881e+07  -6.5131325190254021e+06  1.1395127470129944e+07  -9.1934017818082888e+06  1.6266687985028101e+07  7.4826356757856538e-01  0.0000000000000000e+00  1.0645910363011057e+06  -8.0551712184793819e+06  -3.1238035590066295e+06  -2.2812889148992221e+06  -4.9367462149000494e+06  1.2084389106344931e+05  -4.7816281701517049e+06  2.3212399114434645e+06  -5.2318688363619596e+06  2.2661024390179091e+06  -4.2332454577109171e+06  3.8198399019866618e+06  -3.4612232593717505e+06  6.4589476366725354e+05  -2.1000653174764123e+06  5.7417274969570851e+06  -6.6832507726199087e+06  4.4656779220398320e+06  -4.5493030189899132e+06  4.5657623671829170e+06  -5.7236199120283844e+06  2.7426449516102131e+06  -4.7187287976422086e+06  1.5229405346806806e+06  -4.2232133305425895e+06  -2.5162948167714686e+06  -2.0840415028230636e+06  -7.3487016218135022e+06  1.5801232712966311e+06  5.6780826097971693e-01  0.0000000000000000e+00  1.7287675688337639e+07  -9.3087248682714012e+06  1.3138818387255399e+07  -6.5943515339284753e+06  1.0512411324094258e+07  -4.3383009099099403e+06  8.6516609073172994e+06  -4.5144871582601946e+06  6.8513447136674365e+06  -3.3964226410738183e+06  6.2442896710621119e+06  -4.9887146331948899e+06  4.9084357099173982e+06  -3.4620057227790686e+06  5.7652752133357637e+06  -6.6832507293794965e+06  5.0908573859078391e+06  -3.9768814380438286e+06  5.6891614818634326e+06  -6.0943263645986840e+06  6.4392792943403851e+06  -4.7458098894411232e+06  7.4180001871838281e+06  -5.5486552310526287e+06  8.0727610888376115e+06  -5.7273205373393325e+06  1.0397653368116705e+07  -9.7244638430526927e+06  1.5561314017468294e+07  4.2214628083610578e-01  0.0000000000000000e+00  1.0130400085974843e+06  -8.3960241535547506e+06  -4.1462829351905892e+06  -3.5732580714695053e+06  -4.6184337193482770e+06  -1.0488258701595240e+06  -5.6518269006270552e+06  1.4253331360130166e+06  -5.3085173254374424e+06  2.7358516027308283e+06  -6.7368997492047176e+06  4.6281707855947157e+06  -4.9893539437353592e+06  3.8205679443212533e+06  -5.3249902975520156e+06  4.4656778884221883e+06  -3.9768814295005635e+06  5.0517217615547543e+06  -6.4053740205231532e+06  5.2671170510426937e+06  -4.5418691212432077e+06  3.3927634259752464e+06  -4.9074950004603304e+06  1.5836789801127226e+06  -3.0978465384348040e+06  -1.7145935037773736e+06  -2.3386996163628958e+06  -6.8608751412314447e+06  3.0559751049249237e+06  3.0648875728018043e-01  -8.2298557378547960e-09  1.8938382610518228e+07  -9.4549967736521140e+06  1.3636093101789583e+07  -5.1216231461117538e+06  1.0959914843248479e+07  -4.7495717236841284e+06  1.1186554498728786e+07  -5.8896610808428638e+06  1.0739187073903309e+07  -7.7959139637151528e+06  1.1236546640615048e+07  -6.7373769820679491e+06  6.2448620671930183e+06  -4.2333206119766850e+06  5.3801636410860214e+06  -4.5493029544439940e+06  5.6891614439608958e+06  -6.4053739968510596e+06  5.9164998402807107e+06  -4.4691391045449190e+06  4.7847904868632285e+06  -5.0143134280440537e+06  6.0237394112631120e+06  -4.1636212984232889e+06  6.3255736071610171e+06  -6.0547320121604698e+06  9.3124634911217373e+06  -9.3836514267479889e+06  1.4938488240879072e+07  2.1640151887244996e-01  0.0000000000000000e+00  1.6589351313094434e+06  -9.0589496399566941e+06  -5.0924004913689988e+06  -3.6778443478802107e+06  -7.7735137998194322e+06  1.0344979799479495e+06  -9.0143757591859698e+06  2.5466854147709212e+06  -8.2733450539688189e+06  4.3501665474806894e+06  -7.7962421432252359e+06  2.7362652285534935e+06  -3.3964883402020079e+06  2.2656922573466841e+06  -4.8794215396447834e+06  4.5657622824336961e+06  -6.0943263254500441e+06  5.2671170224141851e+06  -4.4691390994013688e+06  4.1660480966031495e+06  -4.9231522743078806e+06  4.3543983560831044e+06  -3.9081754895481542e+06  1.6318289988354107e+06  -3.8434239515392771e+06  -1.6364798558035144e+05  -2.0218219170208925e+06  -7.1937697770605963e+06  5.0290951146054007e+06  1.4780514915132162e-01  0.0000000000000000e+00  2.2010160378732055e+07  -1.0816008654492224e+07  1.6531333794360790e+07  -8.5953073980586473e+06  1.8172061335683502e+07  -1.1255955217517009e+07  1.8764104476698376e+07  -1.0677859302053878e+07  1.5371253506290926e+07  -8.2735559282808946e+06  1.0739464534721412e+07  -5.3085709402620690e+06  6.8510597314885240e+06  -5.2315058950315295e+06  7.6763699760040604e+06  -5.7236197786365896e+06  6.4392792497019460e+06  -4.5418690766850049e+06  4.7847904720362509e+06  -4.9231522611314785e+06  4.9423866733856536e+06  -4.0498263834106387e+06  3.7364208547605681e+06  -4.1161964963574125e+06  5.5195249205433596e+06  -5.1147967864197446e+06  6.3698362121934630e+06  -8.5410756504316498e+06  1.5310818337878110e+07  9.6975005154827321e-02  0.0000000000000000e+00  1.0386083591363662e+06  -6.6894465399149675e+06  -1.0403916624626840e+07  2.4254465818901962e+05  -1.3120536114198528e+07  2.1978195593542480e+06  -1.1782502663377754e+07  3.4591227646276681e+06  -1.0677986604237976e+07  2.5468600218669493e+06  -5.8897011318201730e+06  1.4251512544376827e+06  -4.5142383522566119e+06  2.3211935034239595e+06  -5.2417796813475499e+06  2.7426448639479144e+06  -4.7458098881365592e+06  3.3927633802678939e+06  -5.0143134153694082e+06  4.3543983338112850e+06  -4.0498263792327465e+06  3.1902514627502039e+06  -3.8571796852727574e+06  3.1745027581787333e+06  -4.1910694483433040e+06  -1.9042611936717306e+05  -1.9741650420034593e+06  -6.1683079041940244e+06  7.0015932500090031e+06  6.0540989092381356e-02  1.1029025241772487e-08  3.2207466562159643e+07  -1.8698016997839205e+07  2.7603559055509154e+07  -1.9853101094677079e+07  2.9848964037675727e+07  -1.7046555463995315e+07  2.2908281172992215e+07  -1.1782576359475395e+07  1.8764208635177523e+07  -9.0144041758609321e+06  1.1186446836871983e+07  -5.6516695933835469e+06  8.6516248848238513e+06  -4.7817736176409489e+06  8.0383612491818396e+06  -4.7187286408909298e+06  7.4180001383735202e+06  -4.9074948980960865e+06  6.0237393830312463e+06  -3.9081754504130366e+06  3.7364208488249015e+06  -3.8571796773995627e+06  3.7795207163950386e+06  -4.3347227807812998e+06  2.7930085686717285e+06  -3.1572619646940562e+06  3.6569915647551180e+06  -7.6934950397434998e+06  1.6360119997845775e+07  3.5488016311232273e-02  0.0000000000000000e+00  -5.1333534426875953e+06  -1.0044682212197729e+06  -1.7288157190972548e+07  3.0949309077837784e+06  -1.8948290763056058e+07  5.4708587219237285e+06  -1.7046595794995654e+07  2.1978789658254771e+06  -1.1255973700315163e+07  1.0344384038399685e+06  -4.7494786156500429e+06  -1.0488509400869305e+06  -4.3383876778572453e+06  1.2095756519234749e+05  -5.5946941618243074e+06  1.5229404055384251e+06  -5.5486552380883377e+06  1.5836789109303073e+06  -4.1636213204314034e+06  1.6318289700003911e+06  -4.1161965002941890e+06  3.1745027394574881e+06  -4.3347227759984378e+06  2.1905674923830363e+06  -2.8218316691561611e+06  4.2599785931139061e+05  -4.2723893640402285e+06  -3.1924102078813482e+06  9.8354632602576148e+06  1.9155547330011256e-02  0.0000000000000000e+00  5.6175083191901647e+07  -3.0506050901013117e+07  4.2676276381204218e+07  -2.8437062244769339e+07  3.4954545449199051e+07  -1.8948312530263484e+07  2.9848996573635019e+07  -1.3120548224403426e+07  1.8172030515778989e+07  -7.7734626793783940e+06  1.0959899092383204e+07  -4.6184823439472541e+06  1.0512478817159887e+07  -4.9367537233921513e+06  1.0262838651461849e+07  -4.2232131242851866e+06  8.0727610708258776e+06  -3.0978464155563642e+06  6.3255735992770288e+06  -3.8434238642394403e+06  5.5195249014123194e+06  -4.1910694043228817e+06  2.7930085644686981e+06  -2.8218316646870663e+06  1.2255797110269205e+06  -4.2125726737564551e+06  1.3371920105928113e+06  -3.4820610569399484e+06  1.7189360076206397e+07  9.2378218219575890e-03  0.0000000000000000e+00  -1.6890837131907925e+07  2.9271839223939702e+06  -2.7905562626907881e+07  1.1236298536986606e+07  -2.8437072836467214e+07  3.0949480345041314e+06  -1.98531