<?xml version="1.0"?>
<VTKFile type="UnstructuredGrid"  version="0.1"  >
<UnstructuredGrid>
<Piece  NumberOfPoints="961" NumberOfCells="1800">
<Points>
<DataArray  type="Float64"  NumberOfComponents="3"  format="ascii">-1 -1 0  -0.9333333333333333 -1 0  -0.8666666666666667 -1 0  -0.8 -1 0  -0.7333333333333334 -1 0  -0.6666666666666667 -1 0  -0.6 -1 0  -0.5333333333333333 -1 0  -0.4666666666666667 -1 0  -0.4 -1 0  -0.3333333333333334 -1 0  -0.2666666666666667 -1 0  -0.2 -1 0  -0.1333333333333333 -1 0  -0.06666666666666665 -1 0  0 -1 0  0.06666666666666665 -1 0  0.1333333333333333 -1 0  0.2 -1 0  0.2666666666666666 -1 0  0.3333333333333333 -1 0  0.3999999999999999 -1 0  0.4666666666666666 -1 0  0.5333333333333334 -1 0  0.6000000000000001 -1 0  0.6666666666666667 -1 0  0.7333333333333334 -1 0  0.8 -1 0  0.8666666666666667 -1 0  0.9333333333333333 -1 0  1 -1 0  -1 -0.9333333333333333 0  -0.9333333333333333 -0.9333333333333333 0  -0.8666666666666667 -0.9333333333333333 0  -0.8 -0.9333333333333333 0  -0.7333333333333334 -0.9333333333333333 0  -0.6666666666666667 -0.9333333333333333 0  -0.6 -0.9333333333333333 0  -0.5333333333333333 -0.9333333333333333 0  -0.4666666666666667 -0.9333333333333333 0  -0.4 -0.9333333333333333 0  -0.3333333333333334 -0.9333333333333333 0  -0.2666666666666667 -0.9333333333333333 0  -0.2 -0.9333333333333333 0  -0.1333333333333333 -0.9333333333333333 0  -0.06666666666666665 -0.9333333333333333 0  0 -0.9333333333333333 0  0.06666666666666665 -0.9333333333333333 0  0.1333333333333333 -0.9333333333333333 0  0.2 -0.9333333333333333 0  0.2666666666666666 -0.9333333333333333 0  0.3333333333333333 -0.9333333333333333 0  0.3999999999999999 -0.9333333333333333 0  0.4666666666666666 -0.9333333333333333 0  0.5333333333333334 -0.9333333333333333 0  0.6000000000000001 -0.9333333333333333 0  0.6666666666666667 -0.9333333333333333 0  0.7333333333333334 -0.9333333333333333 0  0.8 -0.9333333333333333 0  0.8666666666666667 -0.9333333333333333 0  0.9333333333333333 -0.9333333333333333 0  1 -0.9333333333333333 0  -1 -0.8666666666666667 0  -0.9333333333333333 -0.8666666666666667 0  -0.8666666666666667 -0.8666666666666667 0  -0.8 -0.8666666666666667 0  -0.7333333333333334 -0.8666666666666667 0  -0.6666666666666667 -0.8666666666666667 0  -0.6 -0.8666666666666667 0  -0.5333333333333333 -0.8666666666666667 0  -0.4666666666666667 -0.8666666666666667 0  -0.4 -0.8666666666666667 0  -0.3333333333333334 -0.8666666666666667 0  -0.2666666666666667 -0.8666666666666667 0  -0.2 -0.8666666666666667 0  -0.1333333333333333 -0.8666666666666667 0  -0.06666666666666665 -0.8666666666666667 0  0 -0.8666666666666667 0  0.06666666666666665 -0.8666666666666667 0  0.1333333333333333 -0.8666666666666667 0  0.2 -0.8666666666666667 0  0.2666666666666666 -0.8666666666666667 0  0.3333333333333333 -0.8666666666666667 0  0.3999999999999999 -0.8666666666666667 0  0.4666666666666666 -0.8666666666666667 0  0.5333333333333334 -0.8666666666666667 0  0.6000000000000001 -0.8666666666666667 0  0.6666666666666667 -0.8666666666666667 0  0.7333333333333334 -0.8666666666666667 0  0.8 -0.8666666666666667 0  0.8666666666666667 -0.8666666666666667 0  0.9333333333333333 -0.8666666666666667 0  1 -0.8666666666666667 0  -1 -0.8 0  -0.9333333333333333 -0.8 0  -0.8666666666666667 -0.8 0  -0.8 -0.8 0  -0.7333333333333334 -0.8 0  -0.6666666666666667 -0.8 0  -0.6 -0.8 0  -0.5333333333333333 -0.8 0  -0.4666666666666667 -0.8 0  -0.4 -0.8 0  -0.3333333333333334 -0.8 0  -0.2666666666666667 -0.8 0  -0.2 -0.8 0  -0.1333333333333333 -0.8 0  -0.06666666666666665 -0.8 0  0 -0.8 0  0.06666666666666665 -0.8 0  0.1333333333333333 -0.8 0  0.2 -0.8 0  0.2666666666666666 -0.8 0  0.3333333333333333 -0.8 0  0.3999999999999999 -0.8 0  0.4666666666666666 -0.8 0  0.5333333333333334 -0.8 0  0.6000000000000001 -0.8 0  0.6666666666666667 -0.8 0  0.7333333333333334 -0.8 0  0.8 -0.8 0  0.8666666666666667 -0.8 0  0.9333333333333333 -0.8 0  1 -0.8 0  -1 -0.7333333333333334 0  -0.9333333333333333 -0.7333333333333334 0  -0.8666666666666667 -0.7333333333333334 0  -0.8 -0.7333333333333334 0  -0.7333333333333334 -0.7333333333333334 0  -0.6666666666666667 -0.7333333333333334 0  -0.6 -0.7333333333333334 0  -0.5333333333333333 -0.7333333333333334 0  -0.4666666666666667 -0.7333333333333334 0  -0.4 -0.7333333333333334 0  -0.3333333333333334 -0.7333333333333334 0  -0.2666666666666667 -0.7333333333333334 0  -0.2 -0.7333333333333334 0  -0.1333333333333333 -0.7333333333333334 0  -0.06666666666666665 -0.7333333333333334 0  0 -0.7333333333333334 0  0.06666666666666665 -0.7333333333333334 0  0.1333333333333333 -0.7333333333333334 0  0.2 -0.7333333333333334 0  0.2666666666666666 -0.7333333333333334 0  0.3333333333333333 -0.7333333333333334 0  0.3999999999999999 -0.7333333333333334 0  0.4666666666666666 -0.7333333333333334 0  0.5333333333333334 -0.7333333333333334 0  0.6000000000000001 -0.7333333333333334 0  0.6666666666666667 -0.7333333333333334 0  0.7333333333333334 -0.7333333333333334 0  0.8 -0.7333333333333334 0  0.8666666666666667 -0.7333333333333334 0  0.9333333333333333 -0.7333333333333334 0  1 -0.7333333333333334 0  -1 -0.6666666666666667 0  -0.9333333333333333 -0.6666666666666667 0  -0.8666666666666667 -0.6666666666666667 0  -0.8 -0.6666666666666667 0  -0.7333333333333334 -0.6666666666666667 0  -0.6666666666666667 -0.6666666666666667 0  -0.6 -0.6666666666666667 0  -0.5333333333333333 -0.6666666666666667 0  -0.4666666666666667 -0.6666666666666667 0  -0.4 -0.6666666666666667 0  -0.3333333333333334 -0.6666666666666667 0  -0.2666666666666667 -0.6666666666666667 0  -0.2 -0.6666666666666667 0  -0.1333333333333333 -0.6666666666666667 0  -0.06666666666666665 -0.6666666666666667 0  0 -0.6666666666666667 0  0.06666666666666665 -0.6666666666666667 0  0.1333333333333333 -0.6666666666666667 0  0.2 -0.6666666666666667 0  0.2666666666666666 -0.6666666666666667 0  0.3333333333333333 -0.6666666666666667 0  0.3999999999999999 -0.6666666666666667 0  0.4666666666666666 -0.6666666666666667 0  0.5333333333333334 -0.6666666666666667 0  0.6000000000000001 -0.6666666666666667 0  0.6666666666666667 -0.6666666666666667 0  0.7333333333333334 -0.6666666666666667 0  0.8 -0.6666666666666667 0  0.8666666666666667 -0.6666666666666667 0  0.9333333333333333 -0.6666666666666667 0  1 -0.6666666666666667 0  -1 -0.6 0  -0.9333333333333333 -0.6 0  -0.8666666666666667 -0.6 0  -0.8 -0.6 0  -0.7333333333333334 -0.6 0  -0.6666666666666667 -0.6 0  -0.6 -0.6 0  -0.5333333333333333 -0.6 0  -0.4666666666666667 -0.6 0  -0.4 -0.6 0  -0.3333333333333334 -0.6 0  -0.2666666666666667 -0.6 0  -0.2 -0.6 0  -0.1333333333333333 -0.6 0  -0.06666666666666665 -0.6 0  0 -0.6 0  0.06666666666666665 -0.6 0  0.1333333333333333 -0.6 0  0.2 -0.6 0  0.2666666666666666 -0.6 0  0.3333333333333333 -0.6 0  0.3999999999999999 -0.6 0  0.4666666666666666 -0.6 0  0.5333333333333334 -0.6 0  0.6000000000000001 -0.6 0  0.6666666666666667 -0.6 0  0.7333333333333334 -0.6 0  0.8 -0.6 0  0.8666666666666667 -0.6 0  0.9333333333333333 -0.6 0  1 -0.6 0  -1 -0.5333333333333333 0  -0.9333333333333333 -0.5333333333333333 0  -0.8666666666666667 -0.5333333333333333 0  -0.8 -0.5333333333333333 0  -0.7333333333333334 -0.5333333333333333 0  -0.6666666666666667 -0.5333333333333333 0  -0.6 -0.5333333333333333 0  -0.5333333333333333 -0.5333333333333333 0  -0.4666666666666667 -0.5333333333333333 0  -0.4 -0.5333333333333333 0  -0.3333333333333334 -0.5333333333333333 0  -0.2666666666666667 -0.5333333333333333 0  -0.2 -0.5333333333333333 0  -0.1333333333333333 -0.5333333333333333 0  -0.06666666666666665 -0.5333333333333333 0  0 -0.5333333333333333 0  0.06666666666666665 -0.5333333333333333 0  0.1333333333333333 -0.5333333333333333 0  0.2 -0.5333333333333333 0  0.2666666666666666 -0.5333333333333333 0  0.3333333333333333 -0.5333333333333333 0  0.3999999999999999 -0.5333333333333333 0  0.4666666666666666 -0.5333333333333333 0  0.5333333333333334 -0.5333333333333333 0  0.6000000000000001 -0.5333333333333333 0  0.6666666666666667 -0.5333333333333333 0  0.7333333333333334 -0.5333333333333333 0  0.8 -0.5333333333333333 0  0.8666666666666667 -0.5333333333333333 0  0.9333333333333333 -0.5333333333333333 0  1 -0.5333333333333333 0  -1 -0.4666666666666667 0  -0.9333333333333333 -0.4666666666666667 0  -0.8666666666666667 -0.4666666666666667 0  -0.8 -0.4666666666666667 0  -0.7333333333333334 -0.4666666666666667 0  -0.6666666666666667 -0.4666666666666667 0  -0.6 -0.4666666666666667 0  -0.5333333333333333 -0.4666666666666667 0  -0.4666666666666667 -0.4666666666666667 0  -0.4 -0.4666666666666667 0  -0.3333333333333334 -0.4666666666666667 0  -0.2666666666666667 -0.4666666666666667 0  -0.2 -0.4666666666666667 0  -0.1333333333333333 -0.4666666666666667 0  -0.06666666666666665 -0.4666666666666667 0  0 -0.4666666666666667 0  0.06666666666666665 -0.4666666666666667 0  0.1333333333333333 -0.4666666666666667 0  0.2 -0.4666666666666667 0  0.2666666666666666 -0.4666666666666667 0  0.3333333333333333 -0.4666666666666667 0  0.3999999999999999 -0.4666666666666667 0  0.4666666666666666 -0.4666666666666667 0  0.5333333333333334 -0.4666666666666667 0  0.6000000000000001 -0.4666666666666667 0  0.6666666666666667 -0.4666666666666667 0  0.7333333333333334 -0.4666666666666667 0  0.8 -0.4666666666666667 0  0.8666666666666667 -0.4666666666666667 0  0.9333333333333333 -0.4666666666666667 0  1 -0.4666666666666667 0  -1 -0.4 0  -0.9333333333333333 -0.4 0  -0.8666666666666667 -0.4 0  -0.8 -0.4 0  -0.7333333333333334 -0.4 0  -0.6666666666666667 -0.4 0  -0.6 -0.4 0  -0.5333333333333333 -0.4 0  -0.4666666666666667 -0.4 0  -0.4 -0.4 0  -0.3333333333333334 -0.4 0  -0.2666666666666667 -0.4 0  -0.2 -0.4 0  -0.1333333333333333 -0.4 0  -0.06666666666666665 -0.4 0  0 -0.4 0  0.06666666666666665 -0.4 0  0.1333333333333333 -0.4 0  0.2 -0.4 0  0.2666666666666666 -0.4 0  0.3333333333333333 -0.4 0  0.3999999999999999 -0.4 0  0.4666666666666666 -0.4 0  0.5333333333333334 -0.4 0  0.6000000000000001 -0.4 0  0.6666666666666667 -0.4 0  0.7333333333333334 -0.4 0 
[...]
<PointData  Scalars="f_24"> 
<DataArray  type="Float64"  Name="f_24"  format="ascii">0.0000000000000000e+00  0.0000000000000000e+00  0.0000000000000000e+00  0.0000000000000000e+00  0.0000000000000000e+00  0.0000000000000000e+00  0.0000000000000000e+00  0.0000000000000000e+00  0.0000000000000000e+00  0.0000000000000000e+00  0.0000000000000000e+00  0.0000000000000000e+00  0.0000000000000000e+00  0.0000000000000000e+00  0.0000000000000000e+00  0.0000000000000000e+00  0.0000000000000000e+00  0.0000000000000000e+00  0.0000000000000000e+00  0.0000000000000000e+00  0.0000000000000000e+00  0.0000000000000000e+00  0.0000000000000000e+00  0.0000000000000000e+00  0.0000000000000000e+00  1.9442186267565686e-09  0.0000000000000000e+00  0.0000000000000000e+00  0.0000000000000000e+00  0.0000000000000000e+00  1.2460812529142478e+01  0.0000000000000000e+00  1.1374077580161307e+07  1.2425825917688778e+07  1.8082584458421182e+07  1.3026819201008005e+07  1.7843639822509881e+07  1.0183349016648892e+07  1.6969092364713993e+07  7.2243751122903898e+06  1.5869344194231944e+07  5.1654137259652903e+06  1.5477226815178590e+07  3.1083741466183518e+06  1.6123112723480903e+07  1.5708182882895288e+06  1.6856560197266806e+07  1.0343011202079591e+06  1.7920004521251164e+07  9.8222380093531578e+05  1.9640522068130892e+07  1.6579263973964783e+06  2.2842258584296156e+07  1.0182279644267084e+06  3.3463182351300448e+07  -5.3963958605427202e+06  5.8420042680839323e+07  -1.7620458085517570e+07  9.6835031752819777e+07  -1.0827605819637919e+07  2.1063887509149787e+08  1.0880612279536322e+01  0.0000000000000000e+00  1.2425825898007875e+07  1.3659804307637079e+07  5.4945025122431219e+06  2.4449897095730840e+06  -3.6940629101288691e+06  -3.3941332071978217e+06  -8.0776391968576405e+06  -6.4869751642773598e+06  -8.9522293158235997e+06  -7.5452872287386041e+06  -9.8200114119805098e+06  -7.1903488462367021e+06  -1.0167800305203708e+07  -7.6931703022425584e+06  -9.6123748743523713e+06  -8.4282030550850406e+06  -9.7345770422134064e+06  -8.7873787975788917e+06  -9.8931881872798037e+06  -9.4851952864994667e+06  -1.1318359086800069e+07  -7.0274642052940177e+06  -1.9529171613732774e+07  -1.1148851104905724e+06  -3.1819142059156701e+07  2.9832226989628058e+06  -2.7510296464924276e+07  -1.6957632213083223e+07  -1.0827613663429402e+07  9.4556952894959547e+00  -5.6677267118392794e-09  1.8082584449954811e+07  5.4945025156888040e+06  1.9835927516022353e+06  -4.3723657586138761e+06  1.3280314598929083e+06  -4.4985856416315176e+06  3.7692518749769297e+06  -2.0762555628714503e+06  6.6227050180180641e+06  -2.0988032461866764e+06  9.7083845607638620e+06  -2.4104486769193523e+06  1.0851145241309404e+07  -2.1366441157596228e+06  1.1893612012655800e+07  -3.2188862667077044e+06  1.3704172098979622e+07  -4.2917518996948730e+06  1.4208537800711345e+07  -5.2943187297508093e+06  1.7199572987144645e+07  -1.0848852684360659e+07  2.8694818935721707e+07  -1.8043096153710999e+07  4.4356830764649227e+07  -2.9111817595226008e+07  5.3071935480357356e+07  -2.7510295925463438e+07  9.6835033276495636e+07  8.1755389673971592e+00  0.0000000000000000e+00  1.3026819139934195e+07  2.4449897285971418e+06  -4.3723657643262334e+06  5.6814182835782098e+05  -4.4214941589900069e+06  4.3200412996306067e+05  -3.2728975475627854e+06  -1.6440400846623629e+05  -5.2739192860664167e+06  -1.0953965810995561e+05  -6.2338593743591616e+06  -1.7122686203510682e+06  -5.8862666201826856e+06  -2.5432007530033533e+06  -6.7029529482541345e+06  -2.2988967785205203e+06  -6.7893213520194925e+06  -3.6475752187214275e+06  -5.2636584615651295e+06  -3.7682982951821294e+06  -8.8974754664900005e+06  2.8554368477995304e+05  -2.0650235183304824e+07  3.2107053144374788e+06  -2.9632589223845940e+07  1.1638898341599094e+07  -2.9111825847428076e+07  2.9832282684664452e+06  -1.7620464652421113e+07  7.0299904522437204e+00  -1.8275243336326633e-09  1.7843639805202398e+07  -3.6940628739570929e+06  1.3280314661949514e+06  -4.4214941625841139e+06  1.2732053304283312e+06  -2.9072091256747502e+06  2.9608140170816211e+06  -4.2933772506479062e+06  5.8206552712791990e+06  -3.9229318426039922e+06  6.6595269834381053e+06  -3.1510919636458205e+06  8.4725359094679132e+06  -4.3272406090465384e+06  1.0749342439088110e+07  -5.0700853105679415e+06  1.1011209996157693e+07  -4.7346721432693796e+06  1.1481853116748299e+07  -8.0148411880596094e+06  1.8987730940772083e+07  -1.3588965362783236e+07  3.1119424874984495e+07  -1.9692595122152094e+07  3.6379090174673662e+07  -2.9632599192487311e+07  4.4356840154530860e+07  -3.1819143075426791e+07  5.8420042160180293e+07  6.0092653014768906e+00  0.0000000000000000e+00  1.0183348927835725e+07  -3.3941331530575803e+06  -4.4985856923611034e+06  4.3200414123242954e+05  -2.9072091303204908e+06  2.3392599324892070e+06  -4.4375070454353346e+06  3.3809078866570480e+06  -4.2123222684716946e+06  1.7621282270526760e+06  -4.2780817369032670e+06  1.6963917042452327e+06  -5.7323359948221156e+06  1.6248971405336652e+06  -5.7843362302132230e+06  1.6544443457064233e+05  -4.4725619955305355e+06  -1.0437449115510039e+06  -4.8885640977638634e+06  1.1395691033427925e+06  -1.1644815312731139e+07  2.3623950460755946e+06  -1.7670138752905067e+07  5.7516859222016530e+06  -1.9692619006117642e+07  3.2107237696059002e+06  -1.8043103182570282e+07  -1.1148859072779475e+06  -5.3963980955356751e+06  5.1039488119367595e+00  -6.2382127090859422e-09  1.6969092355464831e+07  -8.0776391433990551e+06  3.7692518699149876e+06  -3.2728975272453954e+06  2.9608140215090797e+06  -4.4375070504142651e+06  4.0096290125264893e+06  -3.9483534826531927e+06  3.9417127203391795e+06  -4.0273900704002902e+06  6.2995108924131468e+06  -5.0850920146144489e+06  7.7391623430016693e+06  -4.8954874066321496e+06  8.3812860943820216e+06  -4.9608448332391540e+06  9.0231986531317737e+06  -5.8593995177912172e+06  1.1673260051532602e+07  -9.3421141140705533e+06  1.9582289128669132e+07  -1.2198174152270461e+07  2.3917109749819752e+07  -1.7670180241349708e+07  3.1119459070006028e+07  -2.0650242067788668e+07  2.8694812847948849e+07  -1.9529165024035320e+07  3.3463181289311718e+07  4.3049953567503199e+00  0.0000000000000000e+00  7.2243749948690375e+06  -6.4869750878083287e+06  -2.0762556463489754e+06  -1.6440397834193605e+05  -4.2933772962861899e+06  3.3809079061023667e+06  -3.9483534908444812e+06  3.3693597583339922e+06  -4.1822553669230673e+06  4.5525042165242415e+06  -5.2065746193839442e+06  3.5393089954618472e+06  -4.9341370834728070e+06  2.8584325753745725e+06  -5.4516242052635308e+06  2.4202188130838717e+06  -4.6931115213910136e+06  1.4917251284875448e+06  -6.1170365074770590e+06  2.6714465974643938e+06  -1.1080754251383616e+07  3.6489410228597051e+06  -1.2198251475822194e+07  2.3624572195533118e+06  -1.3588979108584443e+07  2.8552904937031283e+05  -1.0848841529136321e+07  -7.0274654591000900e+06  1.0182234294988120e+06  3.6037285183046937e+00  6.4878747156275342e-09  1.5869344194894612e+07  -8.9522292377743982e+06  6.6227050004436821e+06  -5.2739192570768874e+06  5.8206552915974166e+06  -4.2123222645165650e+06  3.9417127265564180e+06  -4.1822553712748177e+06  5.1616516233099541e+06  -5.1156664569655834e+06  4.9842205029287469e+06  -4.7255245353492741e+06  6.7024950037555220e+06  -5.9564591855469244e+06  7.9900282983968677e+06  -5.4449106180388117e+06  7.1318495710171545e+06  -5.5231812362696650e+06  1.1181777583024930e+07  -8.6018369240636695e+06  1.6016664364859426e+07  -1.1080886434431119e+07  1.9582397697070129e+07  -1.1644834378915584e+07  1.8987699171239283e+07  -8.8974473723178040e+06  1.7199568320328046e+07  -1.1318363594364440e+07  2.2842261556376562e+07  2.9918410053810862e+00  0.0000000000000000e+00  5.1654135851557115e+06  -7.5452871369456025e+06  -2.0988033821988134e+06  -1.0953958116561081e+05  -3.9229319326858362e+06  1.7621282567482728e+06  -4.0273901110086464e+06  4.5525042396674873e+06  -5.1156664706764352e+06  4.3393057749692909e+06  -4.6507787295625256e+06  5.4817243418587409e+06  -6.3427162870813180e+06  4.7520081302981386e+06  -5.0791562337104315e+06  2.3584672956051547e+06  -3.5350692391145425e+06  2.8476312102255444e+06  -8.1131002295696810e+06  4.5310142332435595e+06  -8.6020567414182033e+06  2.6716285313688833e+06  -9.3421444171309285e+06  1.1395076460277420e+06  -8.0147890341612659e+06  -3.7683069816212221e+06  -5.2943330016908655e+06  -9.4851855067247842e+06  1.6579234141921175e+06  2.4613950674849345e+00  3.9598199541539497e-09  1.5477226829587234e+07  -9.8200113278584518e+06  9.7083845619515423e+06  -6.2338593365757177e+06  6.6595269929708252e+06  -4.2780817145880396e+06  6.2995109220532365e+06  -5.2065746326841274e+06  4.9842205183964744e+06  -4.6507787349190442e+06  6.1574554037092980e+06  -6.6664688685991801e+06  5.9212571456629159e+06  -4.7356721593058417e+06  5.6001884700007848e+06  -4.4061107242288161e+06  6.4989982786228517e+06  -7.0119256289752740e+06  1.1695150759813283e+07  -8.1134416806342686e+06  1.1182066520683287e+07  -6.1170782209244780e+06  1.1673148369122842e+07  -4.8884672585738590e+06  1.1481837057640878e+07  -5.2636844090934740e+06  1.4208557622621296e+07  -9.8931892973757200e+06  1.9640518716758963e+07  2.0048216661856504e+00  0.0000000000000000e+00  3.1083739639721503e+06  -7.1903487178934840e+06  -2.4104488724154099e+06  -1.7122685214162446e+06  -3.1510920894943806e+06  1.6963917752795354e+06  -5.0850921206932254e+06  3.5393090428251224e+06  -4.7255245816333769e+06  5.4817243716202956e+06  -6.6664688932325561e+06  5.2578462374382475e+06  -4.1398931123718135e+06  4.6485519324734304e+06  -5.5422155577568254e+06  3.9757007166781747e+06  -5.1923412576135760e+06  4.8169055764731755e+06  -7.0124226966761900e+06  2.8480620171234431e+06  -5.5232376373270415e+06  1.4915363671762375e+06  -5.8592366216242639e+06  -1.0437704116807287e+06  -4.7347236492751054e+06  -3.6475359445837867e+06  -4.2917563395376038e+06  -8.7873879625294842e+06  9.8222653078396188e+05  1.6149213037768650e+00  5.0210571814475964e-07  1.6123112769218940e+07  -1.0167800217956327e+07  1.0851145246000877e+07  -5.8862665535325808e+06  8.4725359311116021e+06  -5.7323359889296638e+06  7.7391623945311662e+06  -4.9341370851981491e+06  6.7024950503866775e+06  -6.3427163279039608e+06  5.9212571851430731e+06  -4.1398931212692182e+06  5.2992660823515905e+06  -6.9559226453546127e+06  5.9996301930567455e+06  -3.6025105959592029e+06  5.1087363507599151e+06  -5.1930068434095439e+06  6.4995943936742973e+06  -3.5351378336212621e+06  7.1315533455435783e+06  -4.6928527934385957e+06  9.0231615039610323e+06  -4.4726523616195181e+06  1.1011280491090978e+07  -6.7893263013475323e+06  1.3704150596467676e+07  -9.7345648073066268e+06  1.7920004865089063e+07  1.2848636089463072e+00  0.0000000000000000e+00  1.5708180441375335e+06  -7.6931701464115400e+06  -2.1366443595338273e+06  -2.5432006186125423e+06  -4.3272408199156104e+06  1.6248972730297439e+06  -4.8954875687744347e+06  2.8584326660689558e+06  -5.9564593240888519e+06  4.7520082183635635e+06  -4.7356722264208104e+06  4.6485519674415234e+06  -6.9559226903581684e+06  5.9751063219529837e+06  -2.1848682452238747e+06  6.7224694896824844e+05  -3.6033253080252246e+06  3.9764588719501332e+06  -4.4061893907947270e+06  2.3580407173209293e+06  -5.4445333858656622e+06  2.4201709135092306e+06  -4.9609967501103906e+06  1.6556313579311495e+05  -5.0700937697425531e+06  -2.2989377529362561e+06  -3.2188632145487312e+06  -8.4282008205408864e+06  1.0342938709803722e+06  1.0081874196418290e+00  7.4976577064942699e-09  1.6856560274270542e+07  -9.6123747597773820e+06  1.1893612030315697e+07  -6.7029528919696333e+06  1.0749342512148531e+07  -5.7843362329830555e+06  8.3812861707035471e+06  -5.4516242420341112e+06  7.9900284143493949e+06  -5.0791562919243872e+06  5.6001885558635173e+06  -5.5422156563781733e+06  5.9996303224483123e+06  -2.1848682997879470e+06  -2.2338066527908560e+05  -2.1857711114632152e+06  6.0005091161990492e+06  -5.5422992101059956e+06  5.5996298392311763e+06  -5.0786500503312694e+06  7.9899727979299705e+06  -5.4518566847278094e+06  8.3814696415720116e+06  -5.7843448997568376e+06  1.0749269673548704e+07  -6.7029089125277214e+06  1.1893616248743812e+07  -9.6123905821666438e+06  1.6856565577630218e+07  7.7880078307140488e-01  0.0000000000000000e+00  1.0343007973431555e+06  -8.4282028576788753e+06  -3.2188866162837441e+06  -2.2988965554119465e+06  -5.0700856301438631e+06  1.6544462726012402e+05  -4.9608450993200215e+06  2.4202190138927749e+06  -5.4449108783602919e+06  2.3584674670937830e+06  -4.4061109467459647e+06  3.9757009170984440e+06  -3.6025107537664641e+06  6.7224694893421594e+05  -2.1857710568897766e+06  5.9760301255617533e+06  -6.9560083490904439e+06  4.6478926159252673e+06  -4.7350546107284231e+06  4.7519499854975669e+06  -5.9567848246494113e+06  2.8586927797091496e+06  -4.8954948983031390e+06  1.6247795146509144e+06  -4.3271691275901543e+06  -2.5431916820939803e+06  -2.1366770755111827e+06  -7.6931569947726410e+06  1.5708198471133038e+06  5.9098095570313269e-01  -3.8516795477913417e-09  1.7920004642365731e+07  -9.7345769177023210e+06  1.3704172184104234e+07  -6.7893213260876164e+06  1.1011210122324668e+07  -4.4725620252555897e+06  9.0231988254576884e+06  -4.6931116377134155e+06  7.1318497646889212e+06  -3.5350693462281404e+06  6.4989984580828343e+06  -5.1923413497880669e+06  5.1087363506773664e+06  -3.6033251501141358e+06  6.0005089868256273e+06  -6.9560083040824449e+06  5.2985688116609445e+06  -4.1392097530989959e+06  5.9211996590888165e+06  -6.3431257249873653e+06  6.7028300695395805e+06  -4.9341381067879861e+06  7.7389882893308401e+06  -5.7322276367472112e+06  8.4725521222770829e+06  -5.8863218753799414e+06  1.0851168571543213e+07  -1.0167792387759224e+07  1.6123104081128774e+07  4.3937439418165597e-01  0.0000000000000000e+00  9.8222333347320813e+05  -8.7873784928383548e+06  -4.2917524222280523e+06  -3.6475748975586193e+06  -4.7346725899267597e+06  -1.0437446158657481e+06  -5.8593999329183949e+06  1.4917253998666464e+06  -5.5231815353298001e+06  2.8476313605611539e+06  -7.0119258082468240e+06  4.8169055764230629e+06  -5.1930067510873470e+06  3.9764586714065378e+06  -5.5422991115518585e+06  4.6478925809364431e+06  -4.1392097442097636e+06  5.2577895291032195e+06  -6.6669292740523126e+06  5.4821149562508585e+06  -4.7255177046518214e+06  3.5390769515503296e+06  -5.0849454048610823e+06  1.6964190871402333e+06  -3.1511789599017655e+06  -1.7122311140211052e+06  -2.4104340989642390e+06  -7.1903693967396421e+06  3.1083781263472768e+06  3.1899680074604747e-01  -4.1149278689273980e-09  1.9640522274309643e+07  -9.8931880505191423e+06  1.4208537944324397e+07  -5.2636584172830973e+06  1.1481853284454219e+07  -4.8885641319150561e+06  1.1673260237756038e+07  -6.1170365210176883e+06  1.1181777659358719e+07  -8.1131001684462335e+06  1.1695150759688746e+07  -7.0124225173536157e+06  6.4995942141441880e+06  -4.4061891681194035e+06  5.5996297534984779e+06  -4.7350545435477793e+06  5.9211996196388612e+06  -6.6669292494117469e+06  6.1578665685468335e+06  -4.6507656841130396e+06  4.9839436397440052e+06  -5.2063942848547082e+06  6.2995511938140374e+06  -4.2782030683441199e+06  6.6595800225203894e+06  -6.2338330110170627e+06  9.7083471998730004e+06  -9.8200013340395596e+06  1.5477232497786835e+07  2.2523303239404333e-01  0.0000000000000000e+00  1.6579257013301034e+06  -9.4851948689269293e+06  -5.2943194088226836e+06  -3.7682979376917346e+06  -8.0148417155379700e+06  1.1395693790307585e+06  -9.3421144775980264e+06  2.6714466977642393e+06  -8.6018370921807531e+06  4.5310142327716872e+06  -8.1134417412134716e+06  2.8480618667732701e+06  -3.5351377265890636e+06  2.3580405455908370e+06  -5.0786499923457559e+06  4.7519498972889129e+06  -6.3431256842410481e+06  5.4821149264549362e+06  -4.6507656787617933e+06  4.3390119541123146e+06  -5.1154668909669016e+06  4.5525556227652729e+06  -4.0275432769410978e+06  1.7621963627461439e+06  -3.9228932024498503e+06  -1.0959601064015561e+05  -2.0987891177896024e+06  -7.5452726642816393e+06  5.1654029369575279e+06  1.5383719171780844e-01  0.0000000000000000e+00  2.2842258841285717e+07  -1.1318358798606345e+07  1.7199573101964120e+07  -8.8974753149751965e+06  1.8987731092009630e+07  -1.1644815226040360e+07  1.9582289207765803e+07  -1.1080754093985874e+07  1.6016664364619203e+07  -8.6020565724348426e+06  1.1182066443564959e+07  -5.5232373382187607e+06  7.1315531521697557e+06  -5.4445331251097070e+06  7.9899726823673975e+06  -5.9567846858128970e+06  6.7028300230807867e+06  -4.7255176582742250e+06  4.9839436243131310e+06  -5.1154668772516623e+06  5.1617074098697640e+06  -4.1824273166083489e+06  3.9417915275870729e+06  -4.2122709287190530e+06  5.8205794276268343e+06  -5.2738995806274861e+06  6.6227294594509965e+06  -8.9522502828587592e+06  1.5869346675277345e+07  1.0093248978699033e-01  0.0000000000000000e+00  1.0182269991462345e+06  -7.0274637137949588e+06  -1.0848853525671586e+07  2.8554403240954259e+05  -1.3588965932985786e+07  2.3623952151589692e+06  -1.2198174460352000e+07  3.6489410219784523e+06  -1.1080886591471005e+07  2.6716284307095101e+06  -6.1170782065077098e+06  1.4915360955642366e+06  -4.6928526777479909e+06  2.4201707119244919e+06  -5.4518566486527715e+06  2.8586926884699869e+06  -4.9341381054308638e+06  3.5390769039773634e+06  -5.2063942716634320e+06  4.5525555995842246e+06  -4.1824273122608052e+06  3.3694424569403119e+06  -3.9482946793235466e+06  3.3808175489910883e+06  -4.2933543327319222e+06  -1.6436864564206015e+05  -2.0762889617798370e+06  -6.4869710839065854e+06  7.2243824355743174e+06  6.3011713727614355e-02  1.1029025241772487e-08  3.3463182537414700e+07  -1.9529171058716785e+07  2.8694819088588811e+07  -2.0650234953709826e+07  3.1119425043463409e+07  -1.7670138508937981e+07  2.3917109747868955e+07  -1.2198251164044036e+07  1.9582397617033109e+07  -9.3421440539808497e+06  1.1673148182134982e+07  -5.8592362058466040e+06  9.0231613328584451e+06  -4.9609964826328196e+06  8.3814695665146755e+06  -4.8954947351468336e+06  7.7389882385298349e+06  -5.0849452983187437e+06  6.2995511644313317e+06  -4.0275432362077674e+06  3.9417915214095903e+06  -3.9482946711285450e+06  4.0095332078165337e+06  -4.4374819565835502e+06  2.9608575137901772e+06  -3.2729401093060304e+06  3.7692556567778811e+06  -8.0776219898889922e+06  1.6969083298501257e+07  3.6936309731445759e-02  0.0000000000000000e+00  -5.3963972920469521e+06  -1.1148843870208261e+06  -1.8043097282160297e+07  3.2107056127611953e+06  -1.9692595728168856e+07  5.7516859232294159e+06  -1.7670180485874534e+07  2.3624570460580899e+06  -1.1644834463133018e+07  1.1395073715771150e+06  -4.8884672240715679e+06  -1.0437707089180432e+06  -4.4726523342732303e+06  1.6556294051519802e+05  -5.7843448993440187e+06  1.6247793802314508e+06  -5.7322276440730058e+06  1.6964190151325853e+06  -4.2782030912524946e+06  1.7621963327319962e+06  -4.2122709328196570e+06  3.3808175295025217e+06  -4.4374819516086513e+06  2.3393065579218413e+06  -2.9072575725191538e+06  4.3200781803882495e+05  -4.4985615716153458e+06  -3.3941488746716464e+06  1.0183347977973729e+07  1.9937300046627946e-02  0.0000000000000000e+00  5.8420042686758809e+07  -3.1819141191666711e+07  4.4356831037725180e+07  -2.9632588724051811e+07  3.6379090163750656e+07  -1.9692618383711413e+07  3.1119458907246988e+07  -1.3588978537409823e+07  1.8987699014330693e+07  -8.0147885088245226e+06  1.1481836890791794e+07  -4.7347231989282873e+06  1.1011280369839314e+07  -5.0700934450605968e+06  1.0749269605111983e+07  -4.3271689129161751e+06  8.4725521035316475e+06  -3.1511788320090380e+06  6.6595800143135525e+06  -3.9228931115901442e+06  5.8205794077108474e+06  -4.2933542869203538e+06  2.9608575094113532e+06  -2.9072575678694192e+06  1.2732088546037071e+06  -4.4214653173567802e+06  1.3280106362228591e+06  -3.6940641775855431e+06  1.7843647426684719e+07  9.6148244823630151e-03  0.0000000000000000e+00  -1.7620460543155201e+07  2.9832236835136632e+06  -2.9111818813000195e+07  1.1638898326407827e+07  -2.9632599748006243e+07  3.2107234384369096e+06  -2.065024