<?xml version="1.0"?>
<VTKFile type="UnstructuredGrid"  version="0.1"  >
<UnstructuredGrid>
<Piece  NumberOfPoints="961" NumberOfCells="1800">
<Points>
<DataArray  type="Float64"  NumberOfComponents="3"  format="ascii">-1 -1 0  -0.9333333333333333 -1 0  -0.8666666666666667 -1 0  -0.8 -1 0  -0.7333333333333334 -1 0  -0.6666666666666667 -1 0  -0.6 -1 0  -0.5333333333333333 -1 0  -0.4666666666666667 -1 0  -0.4 -1 0  -0.3333333333333334 -1 0  -0.2666666666666667 -1 0  -0.2 -1 0  -0.1333333333333333 -1 0  -0.06666666666666665 -1 0  0 -1 0  0.06666666666666665 -1 0  0.1333333333333333 -1 0  0.2 -1 0  0.2666666666666666 -1 0  0.3333333333333333 -1 0  0.3999999999999999 -1 0  0.4666666666666666 -1 0  0.5333333333333334 -1 0  0.6000000000000001 -1 0  0.6666666666666667 -1 0  0.7333333333333334 -1 0  0.8 -1 0  0.8666666666666667 -1 0  0.9333333333333333 -1 0  1 -1 0  -1 -0.9333333333333333 0  -0.9333333333333333 -0.9333333333333333 0  -0.8666666666666667 -0.9333333333333333 0  -0.8 -0.9333333333333333 0  -0.7333333333333334 -0.9333333333333333 0  -0.6666666666666667 -0.9333333333333333 0  -0.6 -0.9333333333333333 0  -0.5333333333333333 -0.9333333333333333 0  -0.4666666666666667 -0.9333333333333333 0  -0.4 -0.9333333333333333 0  -0.3333333333333334 -0.9333333333333333 0  -0.2666666666666667 -0.9333333333333333 0  -0.2 -0.9333333333333333 0  -0.1333333333333333 -0.9333333333333333 0  -0.06666666666666665 -0.9333333333333333 0  0 -0.9333333333333333 0  0.06666666666666665 -0.9333333333333333 0  0.1333333333333333 -0.9333333333333333 0  0.2 -0.9333333333333333 0  0.2666666666666666 -0.9333333333333333 0  0.3333333333333333 -0.9333333333333333 0  0.3999999999999999 -0.9333333333333333 0  0.4666666666666666 -0.9333333333333333 0  0.5333333333333334 -0.9333333333333333 0  0.6000000000000001 -0.9333333333333333 0  0.6666666666666667 -0.9333333333333333 0  0.7333333333333334 -0.9333333333333333 0  0.8 -0.9333333333333333 0  0.8666666666666667 -0.9333333333333333 0  0.9333333333333333 -0.9333333333333333 0  1 -0.9333333333333333 0  -1 -0.8666666666666667 0  -0.9333333333333333 -0.8666666666666667 0  -0.8666666666666667 -0.8666666666666667 0  -0.8 -0.8666666666666667 0  -0.7333333333333334 -0.8666666666666667 0  -0.6666666666666667 -0.8666666666666667 0  -0.6 -0.8666666666666667 0  -0.5333333333333333 -0.8666666666666667 0  -0.4666666666666667 -0.8666666666666667 0  -0.4 -0.8666666666666667 0  -0.3333333333333334 -0.8666666666666667 0  -0.2666666666666667 -0.8666666666666667 0  -0.2 -0.8666666666666667 0  -0.1333333333333333 -0.8666666666666667 0  -0.06666666666666665 -0.8666666666666667 0  0 -0.8666666666666667 0  0.06666666666666665 -0.8666666666666667 0  0.1333333333333333 -0.8666666666666667 0  0.2 -0.8666666666666667 0  0.2666666666666666 -0.8666666666666667 0  0.3333333333333333 -0.8666666666666667 0  0.3999999999999999 -0.8666666666666667 0  0.4666666666666666 -0.8666666666666667 0  0.5333333333333334 -0.8666666666666667 0  0.6000000000000001 -0.8666666666666667 0  0.6666666666666667 -0.8666666666666667 0  0.7333333333333334 -0.8666666666666667 0  0.8 -0.8666666666666667 0  0.8666666666666667 -0.8666666666666667 0  0.9333333333333333 -0.8666666666666667 0  1 -0.8666666666666667 0  -1 -0.8 0  -0.9333333333333333 -0.8 0  -0.8666666666666667 -0.8 0  -0.8 -0.8 0  -0.7333333333333334 -0.8 0  -0.6666666666666667 -0.8 0  -0.6 -0.8 0  -0.5333333333333333 -0.8 0  -0.4666666666666667 -0.8 0  -0.4 -0.8 0  -0.3333333333333334 -0.8 0  -0.2666666666666667 -0.8 0  -0.2 -0.8 0  -0.1333333333333333 -0.8 0  -0.06666666666666665 -0.8 0  0 -0.8 0  0.06666666666666665 -0.8 0  0.1333333333333333 -0.8 0  0.2 -0.8 0  0.2666666666666666 -0.8 0  0.3333333333333333 -0.8 0  0.3999999999999999 -0.8 0  0.4666666666666666 -0.8 0  0.5333333333333334 -0.8 0  0.6000000000000001 -0.8 0  0.6666666666666667 -0.8 0  0.7333333333333334 -0.8 0  0.8 -0.8 0  0.8666666666666667 -0.8 0  0.9333333333333333 -0.8 0  1 -0.8 0  -1 -0.7333333333333334 0  -0.9333333333333333 -0.7333333333333334 0  -0.8666666666666667 -0.7333333333333334 0  -0.8 -0.7333333333333334 0  -0.7333333333333334 -0.7333333333333334 0  -0.6666666666666667 -0.7333333333333334 0  -0.6 -0.7333333333333334 0  -0.5333333333333333 -0.7333333333333334 0  -0.4666666666666667 -0.7333333333333334 0  -0.4 -0.7333333333333334 0  -0.3333333333333334 -0.7333333333333334 0  -0.2666666666666667 -0.7333333333333334 0  -0.2 -0.7333333333333334 0  -0.1333333333333333 -0.7333333333333334 0  -0.06666666666666665 -0.7333333333333334 0  0 -0.7333333333333334 0  0.06666666666666665 -0.7333333333333334 0  0.1333333333333333 -0.7333333333333334 0  0.2 -0.7333333333333334 0  0.2666666666666666 -0.7333333333333334 0  0.3333333333333333 -0.7333333333333334 0  0.3999999999999999 -0.7333333333333334 0  0.4666666666666666 -0.7333333333333334 0  0.5333333333333334 -0.7333333333333334 0  0.6000000000000001 -0.7333333333333334 0  0.6666666666666667 -0.7333333333333334 0  0.7333333333333334 -0.7333333333333334 0  0.8 -0.7333333333333334 0  0.8666666666666667 -0.7333333333333334 0  0.9333333333333333 -0.7333333333333334 0  1 -0.7333333333333334 0  -1 -0.6666666666666667 0  -0.9333333333333333 -0.6666666666666667 0  -0.8666666666666667 -0.6666666666666667 0  -0.8 -0.6666666666666667 0  -0.7333333333333334 -0.6666666666666667 0  -0.6666666666666667 -0.6666666666666667 0  -0.6 -0.6666666666666667 0  -0.5333333333333333 -0.6666666666666667 0  -0.4666666666666667 -0.6666666666666667 0  -0.4 -0.6666666666666667 0  -0.3333333333333334 -0.6666666666666667 0  -0.2666666666666667 -0.6666666666666667 0  -0.2 -0.6666666666666667 0  -0.1333333333333333 -0.6666666666666667 0  -0.06666666666666665 -0.6666666666666667 0  0 -0.6666666666666667 0  0.06666666666666665 -0.6666666666666667 0  0.1333333333333333 -0.6666666666666667 0  0.2 -0.6666666666666667 0  0.2666666666666666 -0.6666666666666667 0  0.3333333333333333 -0.6666666666666667 0  0.3999999999999999 -0.6666666666666667 0  0.4666666666666666 -0.6666666666666667 0  0.5333333333333334 -0.6666666666666667 0  0.6000000000000001 -0.6666666666666667 0  0.6666666666666667 -0.6666666666666667 0  0.7333333333333334 -0.6666666666666667 0  0.8 -0.6666666666666667 0  0.8666666666666667 -0.6666666666666667 0  0.9333333333333333 -0.6666666666666667 0  1 -0.6666666666666667 0  -1 -0.6 0  -0.9333333333333333 -0.6 0  -0.8666666666666667 -0.6 0  -0.8 -0.6 0  -0.7333333333333334 -0.6 0  -0.6666666666666667 -0.6 0  -0.6 -0.6 0  -0.5333333333333333 -0.6 0  -0.4666666666666667 -0.6 0  -0.4 -0.6 0  -0.3333333333333334 -0.6 0  -0.2666666666666667 -0.6 0  -0.2 -0.6 0  -0.1333333333333333 -0.6 0  -0.06666666666666665 -0.6 0  0 -0.6 0  0.06666666666666665 -0.6 0  0.1333333333333333 -0.6 0  0.2 -0.6 0  0.2666666666666666 -0.6 0  0.3333333333333333 -0.6 0  0.3999999999999999 -0.6 0  0.4666666666666666 -0.6 0  0.5333333333333334 -0.6 0  0.6000000000000001 -0.6 0  0.6666666666666667 -0.6 0  0.7333333333333334 -0.6 0  0.8 -0.6 0  0.8666666666666667 -0.6 0  0.9333333333333333 -0.6 0  1 -0.6 0  -1 -0.5333333333333333 0  -0.9333333333333333 -0.5333333333333333 0  -0.8666666666666667 -0.5333333333333333 0  -0.8 -0.5333333333333333 0  -0.7333333333333334 -0.5333333333333333 0  -0.6666666666666667 -0.5333333333333333 0  -0.6 -0.5333333333333333 0  -0.5333333333333333 -0.5333333333333333 0  -0.4666666666666667 -0.5333333333333333 0  -0.4 -0.5333333333333333 0  -0.3333333333333334 -0.5333333333333333 0  -0.2666666666666667 -0.5333333333333333 0  -0.2 -0.5333333333333333 0  -0.1333333333333333 -0.5333333333333333 0  -0.06666666666666665 -0.5333333333333333 0  0 -0.5333333333333333 0  0.06666666666666665 -0.5333333333333333 0  0.1333333333333333 -0.5333333333333333 0  0.2 -0.5333333333333333 0  0.2666666666666666 -0.5333333333333333 0  0.3333333333333333 -0.5333333333333333 0  0.3999999999999999 -0.5333333333333333 0  0.4666666666666666 -0.5333333333333333 0  0.5333333333333334 -0.5333333333333333 0  0.6000000000000001 -0.5333333333333333 0  0.6666666666666667 -0.5333333333333333 0  0.7333333333333334 -0.5333333333333333 0  0.8 -0.5333333333333333 0  0.8666666666666667 -0.5333333333333333 0  0.9333333333333333 -0.5333333333333333 0  1 -0.5333333333333333 0  -1 -0.4666666666666667 0  -0.9333333333333333 -0.4666666666666667 0  -0.8666666666666667 -0.4666666666666667 0  -0.8 -0.4666666666666667 0  -0.7333333333333334 -0.4666666666666667 0  -0.6666666666666667 -0.4666666666666667 0  -0.6 -0.4666666666666667 0  -0.5333333333333333 -0.4666666666666667 0  -0.4666666666666667 -0.4666666666666667 0  -0.4 -0.4666666666666667 0  -0.3333333333333334 -0.4666666666666667 0  -0.2666666666666667 -0.4666666666666667 0  -0.2 -0.4666666666666667 0  -0.1333333333333333 -0.4666666666666667 0  -0.06666666666666665 -0.4666666666666667 0  0 -0.4666666666666667 0  0.06666666666666665 -0.4666666666666667 0  0.1333333333333333 -0.4666666666666667 0  0.2 -0.4666666666666667 0  0.2666666666666666 -0.4666666666666667 0  0.3333333333333333 -0.4666666666666667 0  0.3999999999999999 -0.4666666666666667 0  0.4666666666666666 -0.4666666666666667 0  0.5333333333333334 -0.4666666666666667 0  0.6000000000000001 -0.4666666666666667 0  0.6666666666666667 -0.4666666666666667 0  0.7333333333333334 -0.4666666666666667 0  0.8 -0.4666666666666667 0  0.8666666666666667 -0.4666666666666667 0  0.9333333333333333 -0.4666666666666667 0  1 -0.4666666666666667 0  -1 -0.4 0  -0.9333333333333333 -0.4 0  -0.8666666666666667 -0.4 0  -0.8 -0.4 0  -0.7333333333333334 -0.4 0  -0.6666666666666667 -0.4 0  -0.6 -0.4 0  -0.5333333333333333 -0.4 0  -0.4666666666666667 -0.4 0  -0.4 -0.4 0  -0.3333333333333334 -0.4 0  -0.2666666666666667 -0.4 0  -0.2 -0.4 0  -0.1333333333333333 -0.4 0  -0.06666666666666665 -0.4 0  0 -0.4 0  0.06666666666666665 -0.4 0  0.1333333333333333 -0.4 0  0.2 -0.4 0  0.2666666666666666 -0.4 0  0.3333333333333333 -0.4 0  0.3999999999999999 -0.4 0  0.4666666666666666 -0.4 0  0.5333333333333334 -0.4 0  0.6000000000000001 -0.4 0  0.6666666666666667 -0.4 0  0.7333333333333334 -0.4 0 
[...]
<PointData  Scalars="f_24"> 
<DataArray  type="Float64"  Name="f_24"  format="ascii">0.0000000000000000e+00  0.0000000000000000e+00  0.0000000000000000e+00  0.0000000000000000e+00  0.0000000000000000e+00  0.0000000000000000e+00  0.0000000000000000e+00  0.0000000000000000e+00  0.0000000000000000e+00  0.0000000000000000e+00  0.0000000000000000e+00  0.0000000000000000e+00  0.0000000000000000e+00  0.0000000000000000e+00  0.0000000000000000e+00  0.0000000000000000e+00  0.0000000000000000e+00  0.0000000000000000e+00  0.0000000000000000e+00  0.0000000000000000e+00  0.0000000000000000e+00  0.0000000000000000e+00  0.0000000000000000e+00  0.0000000000000000e+00  0.0000000000000000e+00  -5.4224689080323142e-10  0.0000000000000000e+00  -4.0383687751871477e-07  0.0000000000000000e+00  0.0000000000000000e+00  1.0000036292523221e+01  0.0000000000000000e+00  9.1524317386783250e+06  1.0019526706421882e+07  1.4580123630251553e+07  1.0541543066093890e+07  1.4423423177253447e+07  8.2898982617360204e+06  1.3747261591954425e+07  5.9365678448825190e+06  1.2882022200452235e+07  4.2979666483192649e+06  1.2577990507285738e+07  2.6550736087930081e+06  1.3101922472175067e+07  1.4246637830189727e+06  1.3692194040426569e+07  9.9398168435557035e+05  1.4543772655738363e+07  9.4847368424204586e+05  1.5918797496623140e+07  1.4827293924791228e+06  1.8477660100355651e+07  9.5578283667346998e+05  2.6984247486978542e+07  -4.2128086806683214e+06  4.6987770770698279e+07  -1.4052287924511626e+07  7.7782357387613505e+07  -8.6400786764418017e+06  1.6906799294217587e+08  8.7318958876692800e+00  0.0000000000000000e+00  1.0019526690652423e+07  1.1050988531943195e+07  4.5304614728615005e+06  2.1055020987739214e+06  -2.8083399996406282e+06  -2.5629059751752061e+06  -6.3231709874454467e+06  -5.0527478961121822e+06  -7.0399851843245253e+06  -5.9207989884203691e+06  -7.7560855921513923e+06  -5.6543020650520977e+06  -8.0504983952587936e+06  -6.0688723271096805e+06  -7.6107848068180671e+06  -6.6594051917349212e+06  -7.7041346955358693e+06  -6.9379450634311615e+06  -7.8174784328439832e+06  -7.4809664693414792e+06  -8.9428083332645353e+06  -5.4909140137457456e+06  -1.5517866270979900e+07  -7.3812291724020045e+05  -2.5382886990530007e+07  2.5351915998467817e+06  -2.1957059717769608e+07  -1.3519044982131116e+07  -8.6400849712605253e+06  7.5883732184286634e+00  -4.5341813694714232e-09  1.4580123623508576e+07  4.5304614756517475e+06  1.7429611301777859e+06  -3.3506671331789377e+06  1.2119626368404306e+06  -3.4895116262185615e+06  3.1123433519267947e+06  -1.6146619748034396e+06  5.3315674719812358e+06  -1.6988795890760657e+06  7.7503429714463064e+06  -1.9958496783084047e+06  8.6321837440819927e+06  -1.7995626124835992e+06  9.4570705699590165e+06  -2.6682313148198812e+06  1.0921485589355284e+07  -3.5062705460253665e+06  1.1360779234073987e+07  -4.2650954270657673e+06  1.3817157680002140e+07  -8.6586516515476275e+06  2.3110723710630842e+07  -1.4365326258408038e+07  3.5737142524790324e+07  -2.3210287551119369e+07  4.2738958216306157e+07  -2.1957059284863189e+07  7.7782358610345140e+07  6.5610237109710186e+00  0.0000000000000000e+00  1.0541543017158762e+07  2.1055021140890303e+06  -3.3506671377395974e+06  5.9146053915584658e+05  -3.4610500518127969e+06  3.7361209611703246e+05  -2.6610417091009202e+06  -2.2155265518721726e+05  -4.3674205556589467e+06  -2.5762911078909817e+05  -5.1975780117488550e+06  -1.5857888934544162e+06  -4.9460637063234197e+06  -2.2687094620181313e+06  -5.6085678506484265e+06  -2.0720303131119821e+06  -5.6696073947781352e+06  -3.1373202895842833e+06  -4.4171647109661615e+06  -3.1921547156766811e+06  -7.2741936852555601e+06  1.3973052752500057e+05  -1.6608149592635775e+07  2.6000651493304358e+06  -2.3699075866623707e+07  9.4693021180175431e+06  -2.3210294173694521e+07  2.5351960694290092e+06  -1.4052293194650436e+07  5.6416994874223354e+00  -5.9364626779095582e-09  1.4423423163462568e+07  -2.8083399705497539e+06  1.2119626419318262e+06  -3.4610500546918865e+06  1.0265419349657852e+06  -2.4117845493974774e+06  2.2274594077377375e+06  -3.6448070453476510e+06  4.4400612711285455e+06  -3.3961391719715125e+06  5.0900038403760642e+06  -2.7837661758866939e+06  6.5464206569456402e+06  -3.7234488361478527e+06  8.3769888106953762e+06  -4.3187650384768220e+06  8.5854385907717180e+06  -4.0521472859937958e+06  8.9632577691473439e+06  -6.6762829774361383e+06  1.5010800080531003e+07  -1.1101374129901126e+07  2.4827527556802716e+07  -1.5882431655912057e+07  2.9196943406239189e+07  -2.3699083866651300e+07  3.5737150060313351e+07  -2.5382887806171052e+07  4.6987770352772899e+07  4.8225483663788689e+00  0.0000000000000000e+00  8.2898981905764239e+06  -2.5629059316587136e+06  -3.4895116668958017e+06  3.7361210516210494e+05  -2.4117845531277074e+06  1.7109581216065970e+06  -3.7842526234677257e+06  2.4636547682233048e+06  -3.6340752103480771e+06  1.1700204952551180e+06  -3.6622319457547907e+06  1.1480003013486734e+06  -4.8010433924252251e+06  1.1115253089063601e+06  -4.8316594523775931e+06  -5.9297334360671666e+04  -3.7891217003095886e+06  -1.0494266433164962e+06  -4.1497032462722356e+06  6.7389740805839619e+05  -9.5943687692369409e+06  1.6512452764353803e+06  -1.4399199401607908e+07  4.4524155319317682e+06  -1.5882450823241524e+07  2.6000799599456340e+06  -1.4365331899238983e+07  -7.3812355675419630e+05  -4.2128104743974051e+06  4.0960148654175121e+00  -1.2476425418171884e-09  1.3747261584654810e+07  -6.3231709444787782e+06  3.1123433478916571e+06  -2.6610416928040404e+06  2.2274594112823769e+06  -3.7842526274702149e+06  2.9654556376568731e+06  -3.4161770977771222e+06  2.9395498482092982e+06  -3.4256643578690728e+06  4.8904840754374880e+06  -4.2227219863509843e+06  6.0854650574172996e+06  -4.0444412843927406e+06  6.6136024305918850e+06  -4.0969223853877629e+06  7.1159745892899949e+06  -4.8438382621320616e+06  9.2038373196599204e+06  -7.6892004158465983e+06  1.5494359721013885e+07  -1.0032565285224937e+07  1.8946745722823713e+07  -1.4399232696857207e+07  2.4827554998962481e+07  -1.6608155117558276e+07  2.3110718825051352e+07  -1.5517860982703902e+07  2.6984246634607099e+07  3.4548396989333217e+00  0.0000000000000000e+00  5.9365677507745344e+06  -5.0527478346865512e+06  -1.6146620417783533e+06  -2.2155263102910746e+05  -3.6448070819855826e+06  2.4636547838192056e+06  -3.4161771043515960e+06  2.4888042717619399e+06  -3.5292084936669148e+06  3.5201735289909248e+06  -4.2803880892682942e+06  2.7606979413345563e+06  -4.0251362140471800e+06  2.2364366333878441e+06  -4.4302307748703221e+06  1.8844676372838507e+06  -3.8322444321851032e+06  1.1168789317819981e+06  -5.0114277423072001e+06  2.0108380037466548e+06  -9.0641712611755785e+06  2.7159358833157341e+06  -1.0032627338825990e+07  1.6512951718310455e+06  -1.1101385161147868e+07  1.3971878234887120e+05  -8.6586426992907841e+06  -5.4909150200267481e+06  9.5577919719716033e+05  2.8920598786929883e+00  0.0000000000000000e+00  1.2882022201105135e+07  -7.0399851216436839e+06  5.3315674578860300e+06  -4.3674205324171586e+06  4.4400612874214333e+06  -3.6340752071839622e+06  2.9395498531978200e+06  -3.5292084971605055e+06  4.0195737838118831e+06  -4.1888792761015352e+06  3.9436613649061895e+06  -3.8314739910316998e+06  5.3497371144129811e+06  -4.8042818130611796e+06  6.3895269174813610e+06  -4.3940311447771154e+06  5.6937309274273794e+06  -4.4724782345673824e+06  8.9162729055234734e+06  -6.9874583985982090e+06  1.2730851454135368e+07  -9.0642773405565117e+06  1.5494446849199574e+07  -9.5943840701974686e+06  1.5010774584906777e+07  -7.2741711391336815e+06  1.3817153934789648e+07  -8.9428119507424459e+06  1.8477662485405207e+07  2.4010086859333377e+00  0.0000000000000000e+00  4.2979665354268262e+06  -5.9207989147219621e+06  -1.6988796982271506e+06  -2.5762904906409589e+05  -3.3961392442746055e+06  1.1700205190780119e+06  -3.4256643904575836e+06  3.5201735475627105e+06  -4.1888792871037382e+06  3.4329502404781464e+06  -3.7612050309372731e+06  4.3818343682738934e+06  -5.1016070449136095e+06  3.8049538533463832e+06  -4.0840866944017690e+06  1.8838655443044086e+06  -2.8488556721853269e+06  2.2672812904568245e+06  -6.5407038489783080e+06  3.5857636493195002e+06  -6.9876348061578600e+06  2.0109840091238229e+06  -7.6892247346219262e+06  6.7384808741691033e+05  -6.6762411229312029e+06  -3.1921616866821647e+06  -4.2651068805646924e+06  -7.4809586209523128e+06  1.4827269983066285e+06  1.9753158108687854e+00  0.0000000000000000e+00  1.2577990518945517e+07  -7.7560855246226322e+06  7.7503429723969884e+06  -5.1975779814496199e+06  5.0900038480198961e+06  -3.6622319278534972e+06  4.8904840992257092e+06  -4.2803880999439061e+06  3.9436613773207744e+06  -3.7612050352368657e+06  4.9272836486062538e+06  -5.3571153590247864e+06  4.7480743079975434e+06  -3.8030077659026175e+06  4.4920811661578892e+06  -3.5386172987824734e+06  5.2114435588168567e+06  -5.6348689380933484e+06  9.3706173064189143e+06  -6.5409778698781598e+06  8.9165047834250499e+06  -5.0114612181366151e+06  9.2037476924274713e+06  -4.1496255309989122e+06  8.9632448814344965e+06  -4.4171855343230916e+06  1.1360795141540907e+07  -7.8174793237729650e+06  1.5918794807008129e+07  1.6089070736764426e+00  0.0000000000000000e+00  2.6550734622926540e+06  -5.6543019620472658e+06  -1.9958498352007209e+06  -1.5857888140746953e+06  -2.7837662768855793e+06  1.1480003583500155e+06  -4.2227220714801112e+06  2.7606979793427172e+06  -3.8314740281734434e+06  4.3818343921575584e+06  -5.3571153787924387e+06  4.2167117151900986e+06  -3.3235136587498533e+06  3.7300048252466801e+06  -4.4482215958499350e+06  3.1899657018974279e+06  -4.1682546087309043e+06  3.8626831440226701e+06  -5.6352678442664556e+06  2.2676270210911999e+06  -4.4725234974795915e+06  1.1167274472789227e+06  -4.8437075348975984e+06  -1.0494471076477382e+06  -4.0521886205145265e+06  -3.1372887713293652e+06  -3.5062741090710452e+06  -6.9379524185226420e+06  9.4847587493601255e+05  1.2960047035110094e+00  2.3053366117456195e-06  1.3101922508937221e+07  -8.0504983252444416e+06  8.6321837478467021e+06  -4.9460636528480258e+06  6.5464206743169054e+06  -4.8010433877015524e+06  6.0854650987722427e+06  -4.0251362154341303e+06  5.3497371518375492e+06  -5.1016070776765058e+06  4.7480743396822801e+06  -3.3235136658917032e+06  4.2525625154440766e+06  -5.5822823959518764e+06  4.8149158268020311e+06  -2.8910838121655900e+06  4.0995301511617848e+06  -4.1687887538455776e+06  5.2119219523527473e+06  -2.8489107205688246e+06  5.6934932009173678e+06  -3.8320367981453096e+06  7.1159447763830349e+06  -3.7891942207981944e+06  8.5854951642970294e+06  -5.6696113666925682e+06  1.0921468333199183e+07  -7.7041248768318109e+06  1.4543772931637697e+07  1.0311271989973234e+00  0.0000000000000000e+00  1.4246635871148140e+06  -6.0688722020654147e+06  -1.7995628081150637e+06  -2.2687093541710298e+06  -3.7234490053708395e+06  1.1115254152302069e+06  -4.0444414145099628e+06  2.2364367061701124e+06  -4.8042819242422236e+06  3.8049539240196496e+06  -3.8030078197627072e+06  3.7300048533085873e+06  -5.5822824320665626e+06  4.7952453899167944e+06  -1.7533137276970679e+06  5.3956582723535784e+05  -2.8917376339139277e+06  3.1905741357558896e+06  -3.5386804301799452e+06  1.8835232072125080e+06  -4.3937284088661401e+06  1.8844291969737366e+06  -4.0970443015338350e+06  -5.9202074400753831e+04  -4.3187718271122715e+06  -2.0720631958413124e+06  -2.6682128150190529e+06  -6.6594033985010711e+06  9.9397586669811106e+05  8.0908935613185418e-01  3.7488288532471349e-09  1.3692194102234252e+07  -7.6107847148911981e+06  9.4570705841401946e+06  -5.6085678054781416e+06  8.3769888693362679e+06  -4.8316594546034941e+06  6.6136024918451970e+06  -4.4302308043860877e+06  6.3895270105377669e+06  -4.0840867411221988e+06  4.4920812350657452e+06  -4.4482216749965847e+06  4.8149159306427110e+06  -1.7533137714881385e+06  -1.7907720799079191e+05  -1.7540382948284480e+06  4.8156211791490167e+06  -4.4482887284348700e+06  4.4916328544657677e+06  -4.0836804727272531e+06  6.3894823773162058e+06  -4.4304173440154530e+06  6.6137497306631459e+06  -4.8316664098539585e+06  8.3769304149908694e+06  -5.6085325111486334e+06  9.4570739695068114e+06  -7.6107974126557438e+06  1.3692198358278863e+07  6.2500226828270133e-01  0.0000000000000000e+00  9.9398142523400241e+05  -6.6594050333422516e+06  -2.6682315953518623e+06  -2.0720301340529774e+06  -4.3187652949324949e+06  -5.9297179728685456e+04  -4.0969225989229814e+06  1.8844677984347583e+06  -4.3940313536885967e+06  1.8838656819260481e+06  -3.5386174773557298e+06  3.1899658627391132e+06  -2.8910839388086312e+06  5.3956582720777020e+05  -1.7540382510293906e+06  4.7959867596779913e+06  -5.5823511748091057e+06  3.7294757113223062e+06  -3.8025121715591298e+06  3.8049071910510138e+06  -4.8045431445608074e+06  2.2366454522556248e+06  -4.0444472965987055e+06  1.1114309119204932e+06  -3.7233914709307365e+06  -2.2687021824468859e+06  -1.7995890633017363e+06  -6.0688616476281323e+06  1.4246650340368992e+06  4.7427332618959517e-01  0.0000000000000000e+00  1.4543772752899446e+07  -7.7041345956520280e+06  1.0921485657684024e+07  -5.6696073739523869e+06  8.5854386920377631e+06  -3.7891217241685484e+06  7.1159747275911411e+06  -3.8322445255419887e+06  5.6937310828537233e+06  -2.8488557581489147e+06  5.2114437028380521e+06  -4.1682546827028939e+06  4.0995301510949736e+06  -2.8917375071874461e+06  4.8156210753207626e+06  -5.5823511386910193e+06  4.2520029426073562e+06  -3.3229652500888640e+06  4.7480281739424868e+06  -5.1019356265319390e+06  5.3500060110055935e+06  -4.0251370352796940e+06  6.0853253760759644e+06  -4.8009564330383539e+06  6.5464336680318397e+06  -4.9461080496702595e+06  8.6322024670326449e+06  -8.0504920413639676e+06  1.3101915536581498e+07  3.5260621043558676e-01  0.0000000000000000e+00  9.4847330903364311e+05  -6.9379448189176498e+06  -3.5062709653568473e+06  -3.1373200318234735e+06  -4.0521476444296418e+06  -1.0494264060222805e+06  -4.8438385952807777e+06  1.1168791495647808e+06  -4.4724784745692601e+06  2.2672814111052062e+06  -5.6348690819610665e+06  3.8626831439805203e+06  -4.1687886797524500e+06  3.1905739748156802e+06  -4.4482886493397653e+06  3.7294756832435331e+06  -3.3229652429534080e+06  4.2166662056857385e+06  -5.3574848430557512e+06  4.3821478436660646e+06  -3.8314685092664165e+06  2.7605117217319761e+06  -4.2226043292663246e+06  1.1480222766323693e+06  -2.7838359920202955e+06  -1.5857587939366957e+06  -1.9958379792283315e+06  -5.6543185572100654e+06  2.6550768026770693e+06  2.5600092908859451e-01  0.0000000000000000e+00  1.5918797662010601e+07  -7.8174783231465435e+06  1.1360779349338152e+07  -4.4171646754059233e+06  8.9632579037568234e+06  -4.1497032736783349e+06  9.2038374691102467e+06  -5.0114277531726919e+06  8.9162729667818714e+06  -6.5407037999272933e+06  9.3706173063184731e+06  -5.6352677003576932e+06  5.2119218082752768e+06  -3.5386802514785132e+06  4.4916327856612448e+06  -3.8025121176468297e+06  4.7480281422820203e+06  -5.3574848232828826e+06  4.9276136161174076e+06  -3.7611945617193198e+06  3.9434391769974185e+06  -4.2802433674206333e+06  4.8905164180706674e+06  -3.6623293165239915e+06  5.0900464052303024e+06  -5.1975568546934146e+06  7.7503129886263674e+06  -7.7560775043951171e+06  1.2577995067782270e+07  1.8075374241831177e-01  0.0000000000000000e+00  1.4827288337778377e+06  -7.4809661342958929e+06  -4.2650959720330760e+06  -3.1921544287585425e+06  -6.6762834007269107e+06  6.7389762930999242e+05  -7.6892007075836789e+06  2.0108380842378906e+06  -6.9874585335172480e+06  3.5857636489414107e+06  -6.5409779184912788e+06  2.2676269004328945e+06  -2.8489106346709705e+06  1.8835230693951147e+06  -4.0836804261904727e+06  3.8049071202619304e+06  -5.1019355938309887e+06  4.3821478197547337e+06  -3.7611945574234291e+06  3.4327144437173801e+06  -4.1887191206353069e+06  3.5202147834645952e+06  -3.4257873089975105e+06  1.1700751754217411e+06  -3.3961081625320008e+06  -2.5767433477801530e+05  -1.6988682507707449e+06  -5.9207873001367012e+06  4.2979579900477426e+06  1.2345723817929909e-01  0.0000000000000000e+00  1.8477660306494992e+07  -8.9428081020566262e+06  1.3817157772144508e+07  -7.2741935636429209e+06  1.5010800201928675e+07  -9.5943686996600032e+06  1.5494359784495989e+07  -9.0641711348638311e+06  1.2730851453951003e+07  -6.9876346705454700e+06  8.9165047215354256e+06  -4.4725232574367868e+06  5.6934930457304092e+06  -4.3937281996035110e+06  6.3894822845719876e+06  -4.8045430331438659e+06  5.3500059737194190e+06  -3.8314684720496018e+06  3.9434391646124749e+06  -4.1887191096300776e+06  4.0196185535755181e+06  -3.5293464865227849e+06  2.9396130925063789e+06  -3.6340340092414296e+06  4.4400004051589109e+06  -4.3674047416962916e+06  5.3315870866991738e+06  -7.0400020107193226e+06  1.2882024191658588e+07  8.1000375125579796e-02  0.0000000000000000e+00  9.5578206190605287e+05  -5.4909136193867065e+06  -8.6586523267365694e+06  1.3973080651829016e+05  -1.1101374587481294e+07  1.6512454121371631e+06  -1.0032565532465236e+07  2.7159358826079513e+06  -9.0642774665860441e+06  2.0109839283436129e+06  -5.0114612065578327e+06  1.1167272293071323e+06  -3.8320367052965304e+06  1.8844290351999921e+06  -4.4304173150622807e+06  2.2366453790376638e+06  -4.0251370341874361e+06  2.7605116835551728e+06  -4.2802433568324810e+06  3.5202147648622701e+06  -3.5293464830321153e+06  2.4888706389475851e+06  -3.4161299070005720e+06  2.4635822705388111e+06  -3.6447886533012511e+06  -2.2152427587294849e+05  -1.6146887780381273e+06  -5.0527446214800775e+06  5.9365737220806731e+06  5.0568084758240921e-02  0.0000000000000000e+00  2.6984247636234548e+07  -1.5517865825649327e+07  2.3110723833283212e+07  -1.6608149408375762e+07  2.4827527692022402e+07  -1.4399199205809575e+07  1.8946745721255809e+07  -1.0032627088622769e+07  1.5494446784967918e+07  -7.6892244431871744e+06  9.2037475423669443e+06  -4.8437072012264431e+06  7.1159446390749067e+06  -4.0970440868762704e+06  6.6137496704301108e+06  -4.0444471656593834e+06  6.0853253353054347e+06  -4.2226042437661579e+06  4.8905163944891728e+06  -3.4257872763088611e+06  2.9396130875497828e+06  -3.4161299004230825e+06  2.9653787525767400e+06  -3.7842324891989888e+06  2.2274943146556835e+06  -2.6610758657081798e+06  3.1123463869200046e+06  -6.3231571784638707e+06  1.3747254316270998e+07  2.9642082886849670e-02  0.0000000000000000e+00  -4.2128098295808937e+06  -7.3812233672272845e+05  -1.4365327164044976e+07  2.6000653887308412e+06  -1.5882432142246531e+07  4.4524155327533735e+06  -1.4399232893097462e+07  1.6512950325850961e+06  -9.5943841377989370e+06  6.7384786715394980e+05  -4.1496255033149351e+06  -1.0494473461886563e+06  -3.7891941988496361e+06  -5.9202231114538350e+04  -4.8316664095162740e+06  1.1114308040476649e+06  -4.8009564389122901e+06  1.1480222188495342e+06  -3.6623293349014185e+06  1.1700751513430404e+06  -3.6340340125222648e+06  2.4635822549081915e+06  -3.7842324851997737e+06  1.7109955393923114e+06  -2.4118234289028896e+06  3.7361505586840346e+05  -3.4894923095436785e+06  -2.5629185485495110e+06  8.2898974282942470e+06  1.6000058068037139e-02  0.0000000000000000e+00  4.6987770775358282e+07  -2.5382886294411648e+07  3.5737142743898280e+07  -2.3699075465527121e+07  2.9196943397467684e+07  -1.5882450323746881e+07  2.4827554868332967e+07  -1.1101384702785453e+07  1.5010774458964989e+07  -6.6762407013605004e+06  8.9632447475121617e+06  -4.0521882591215889e+06  8.5854950669734012e+06  -4.3187715665604630e+06  8.3769303600605968e+06  -3.7233912986562708e+06  6.5464336529868962e+06  -2.7838358893814273e+06  5.0900463986512022e+06  -3.3961080896046655e+06  4.4400003891888624e+06  -3.6447886165243527e+06  2.2274943111500908e+06  -2.4118234251692961e+06  1.0265447631834828e+06  -3.4610269058542456e+06  1.2119459254875537e+06  -2.8083410167357135e+06  1.4423429279845161e+07  7.7160773862061825e-03  0.0000000000000000e+00  -1.4052289896873683e+07  2.5351923899042364e+06  -2.3210288528420497e+07  9.4693021058139130e+06  -2.3699084312452193e+07  2.6000796941749621e+06  -1.66