<?xml version="1.0"?>
<VTKFile type="UnstructuredGrid"  version="0.1"  >
<UnstructuredGrid>
<Piece  NumberOfPoints="961" NumberOfCells="1800">
<Points>
<DataArray  type="Float64"  NumberOfComponents="3"  format="ascii">-1 -1 0  -0.9333333333333333 -1 0  -0.8666666666666667 -1 0  -0.8 -1 0  -0.7333333333333334 -1 0  -0.6666666666666667 -1 0  -0.6 -1 0  -0.5333333333333333 -1 0  -0.4666666666666667 -1 0  -0.4 -1 0  -0.3333333333333334 -1 0  -0.2666666666666667 -1 0  -0.2 -1 0  -0.1333333333333333 -1 0  -0.06666666666666665 -1 0  0 -1 0  0.06666666666666665 -1 0  0.1333333333333333 -1 0  0.2 -1 0  0.2666666666666666 -1 0  0.3333333333333333 -1 0  0.3999999999999999 -1 0  0.4666666666666666 -1 0  0.5333333333333334 -1 0  0.6000000000000001 -1 0  0.6666666666666667 -1 0  0.7333333333333334 -1 0  0.8 -1 0  0.8666666666666667 -1 0  0.9333333333333333 -1 0  1 -1 0  -1 -0.9333333333333333 0  -0.9333333333333333 -0.9333333333333333 0  -0.8666666666666667 -0.9333333333333333 0  -0.8 -0.9333333333333333 0  -0.7333333333333334 -0.9333333333333333 0  -0.6666666666666667 -0.9333333333333333 0  -0.6 -0.9333333333333333 0  -0.5333333333333333 -0.9333333333333333 0  -0.4666666666666667 -0.9333333333333333 0  -0.4 -0.9333333333333333 0  -0.3333333333333334 -0.9333333333333333 0  -0.2666666666666667 -0.9333333333333333 0  -0.2 -0.9333333333333333 0  -0.1333333333333333 -0.9333333333333333 0  -0.06666666666666665 -0.9333333333333333 0  0 -0.9333333333333333 0  0.06666666666666665 -0.9333333333333333 0  0.1333333333333333 -0.9333333333333333 0  0.2 -0.9333333333333333 0  0.2666666666666666 -0.9333333333333333 0  0.3333333333333333 -0.9333333333333333 0  0.3999999999999999 -0.9333333333333333 0  0.4666666666666666 -0.9333333333333333 0  0.5333333333333334 -0.9333333333333333 0  0.6000000000000001 -0.9333333333333333 0  0.6666666666666667 -0.9333333333333333 0  0.7333333333333334 -0.9333333333333333 0  0.8 -0.9333333333333333 0  0.8666666666666667 -0.9333333333333333 0  0.9333333333333333 -0.9333333333333333 0  1 -0.9333333333333333 0  -1 -0.8666666666666667 0  -0.9333333333333333 -0.8666666666666667 0  -0.8666666666666667 -0.8666666666666667 0  -0.8 -0.8666666666666667 0  -0.7333333333333334 -0.8666666666666667 0  -0.6666666666666667 -0.8666666666666667 0  -0.6 -0.8666666666666667 0  -0.5333333333333333 -0.8666666666666667 0  -0.4666666666666667 -0.8666666666666667 0  -0.4 -0.8666666666666667 0  -0.3333333333333334 -0.8666666666666667 0  -0.2666666666666667 -0.8666666666666667 0  -0.2 -0.8666666666666667 0  -0.1333333333333333 -0.8666666666666667 0  -0.06666666666666665 -0.8666666666666667 0  0 -0.8666666666666667 0  0.06666666666666665 -0.8666666666666667 0  0.1333333333333333 -0.8666666666666667 0  0.2 -0.8666666666666667 0  0.2666666666666666 -0.8666666666666667 0  0.3333333333333333 -0.8666666666666667 0  0.3999999999999999 -0.8666666666666667 0  0.4666666666666666 -0.8666666666666667 0  0.5333333333333334 -0.8666666666666667 0  0.6000000000000001 -0.8666666666666667 0  0.6666666666666667 -0.8666666666666667 0  0.7333333333333334 -0.8666666666666667 0  0.8 -0.8666666666666667 0  0.8666666666666667 -0.8666666666666667 0  0.9333333333333333 -0.8666666666666667 0  1 -0.8666666666666667 0  -1 -0.8 0  -0.9333333333333333 -0.8 0  -0.8666666666666667 -0.8 0  -0.8 -0.8 0  -0.7333333333333334 -0.8 0  -0.6666666666666667 -0.8 0  -0.6 -0.8 0  -0.5333333333333333 -0.8 0  -0.4666666666666667 -0.8 0  -0.4 -0.8 0  -0.3333333333333334 -0.8 0  -0.2666666666666667 -0.8 0  -0.2 -0.8 0  -0.1333333333333333 -0.8 0  -0.06666666666666665 -0.8 0  0 -0.8 0  0.06666666666666665 -0.8 0  0.1333333333333333 -0.8 0  0.2 -0.8 0  0.2666666666666666 -0.8 0  0.3333333333333333 -0.8 0  0.3999999999999999 -0.8 0  0.4666666666666666 -0.8 0  0.5333333333333334 -0.8 0  0.6000000000000001 -0.8 0  0.6666666666666667 -0.8 0  0.7333333333333334 -0.8 0  0.8 -0.8 0  0.8666666666666667 -0.8 0  0.9333333333333333 -0.8 0  1 -0.8 0  -1 -0.7333333333333334 0  -0.9333333333333333 -0.7333333333333334 0  -0.8666666666666667 -0.7333333333333334 0  -0.8 -0.7333333333333334 0  -0.7333333333333334 -0.7333333333333334 0  -0.6666666666666667 -0.7333333333333334 0  -0.6 -0.7333333333333334 0  -0.5333333333333333 -0.7333333333333334 0  -0.4666666666666667 -0.7333333333333334 0  -0.4 -0.7333333333333334 0  -0.3333333333333334 -0.7333333333333334 0  -0.2666666666666667 -0.7333333333333334 0  -0.2 -0.7333333333333334 0  -0.1333333333333333 -0.7333333333333334 0  -0.06666666666666665 -0.7333333333333334 0  0 -0.7333333333333334 0  0.06666666666666665 -0.7333333333333334 0  0.1333333333333333 -0.7333333333333334 0  0.2 -0.7333333333333334 0  0.2666666666666666 -0.7333333333333334 0  0.3333333333333333 -0.7333333333333334 0  0.3999999999999999 -0.7333333333333334 0  0.4666666666666666 -0.7333333333333334 0  0.5333333333333334 -0.7333333333333334 0  0.6000000000000001 -0.7333333333333334 0  0.6666666666666667 -0.7333333333333334 0  0.7333333333333334 -0.7333333333333334 0  0.8 -0.7333333333333334 0  0.8666666666666667 -0.7333333333333334 0  0.9333333333333333 -0.7333333333333334 0  1 -0.7333333333333334 0  -1 -0.6666666666666667 0  -0.9333333333333333 -0.6666666666666667 0  -0.8666666666666667 -0.6666666666666667 0  -0.8 -0.6666666666666667 0  -0.7333333333333334 -0.6666666666666667 0  -0.6666666666666667 -0.6666666666666667 0  -0.6 -0.6666666666666667 0  -0.5333333333333333 -0.6666666666666667 0  -0.4666666666666667 -0.6666666666666667 0  -0.4 -0.6666666666666667 0  -0.3333333333333334 -0.6666666666666667 0  -0.2666666666666667 -0.6666666666666667 0  -0.2 -0.6666666666666667 0  -0.1333333333333333 -0.6666666666666667 0  -0.06666666666666665 -0.6666666666666667 0  0 -0.6666666666666667 0  0.06666666666666665 -0.6666666666666667 0  0.1333333333333333 -0.6666666666666667 0  0.2 -0.6666666666666667 0  0.2666666666666666 -0.6666666666666667 0  0.3333333333333333 -0.6666666666666667 0  0.3999999999999999 -0.6666666666666667 0  0.4666666666666666 -0.6666666666666667 0  0.5333333333333334 -0.6666666666666667 0  0.6000000000000001 -0.6666666666666667 0  0.6666666666666667 -0.6666666666666667 0  0.7333333333333334 -0.6666666666666667 0  0.8 -0.6666666666666667 0  0.8666666666666667 -0.6666666666666667 0  0.9333333333333333 -0.6666666666666667 0  1 -0.6666666666666667 0  -1 -0.6 0  -0.9333333333333333 -0.6 0  -0.8666666666666667 -0.6 0  -0.8 -0.6 0  -0.7333333333333334 -0.6 0  -0.6666666666666667 -0.6 0  -0.6 -0.6 0  -0.5333333333333333 -0.6 0  -0.4666666666666667 -0.6 0  -0.4 -0.6 0  -0.3333333333333334 -0.6 0  -0.2666666666666667 -0.6 0  -0.2 -0.6 0  -0.1333333333333333 -0.6 0  -0.06666666666666665 -0.6 0  0 -0.6 0  0.06666666666666665 -0.6 0  0.1333333333333333 -0.6 0  0.2 -0.6 0  0.2666666666666666 -0.6 0  0.3333333333333333 -0.6 0  0.3999999999999999 -0.6 0  0.4666666666666666 -0.6 0  0.5333333333333334 -0.6 0  0.6000000000000001 -0.6 0  0.6666666666666667 -0.6 0  0.7333333333333334 -0.6 0  0.8 -0.6 0  0.8666666666666667 -0.6 0  0.9333333333333333 -0.6 0  1 -0.6 0  -1 -0.5333333333333333 0  -0.9333333333333333 -0.5333333333333333 0  -0.8666666666666667 -0.5333333333333333 0  -0.8 -0.5333333333333333 0  -0.7333333333333334 -0.5333333333333333 0  -0.6666666666666667 -0.5333333333333333 0  -0.6 -0.5333333333333333 0  -0.5333333333333333 -0.5333333333333333 0  -0.4666666666666667 -0.5333333333333333 0  -0.4 -0.5333333333333333 0  -0.3333333333333334 -0.5333333333333333 0  -0.2666666666666667 -0.5333333333333333 0  -0.2 -0.5333333333333333 0  -0.1333333333333333 -0.5333333333333333 0  -0.06666666666666665 -0.5333333333333333 0  0 -0.5333333333333333 0  0.06666666666666665 -0.5333333333333333 0  0.1333333333333333 -0.5333333333333333 0  0.2 -0.5333333333333333 0  0.2666666666666666 -0.5333333333333333 0  0.3333333333333333 -0.5333333333333333 0  0.3999999999999999 -0.5333333333333333 0  0.4666666666666666 -0.5333333333333333 0  0.5333333333333334 -0.5333333333333333 0  0.6000000000000001 -0.5333333333333333 0  0.6666666666666667 -0.5333333333333333 0  0.7333333333333334 -0.5333333333333333 0  0.8 -0.5333333333333333 0  0.8666666666666667 -0.5333333333333333 0  0.9333333333333333 -0.5333333333333333 0  1 -0.5333333333333333 0  -1 -0.4666666666666667 0  -0.9333333333333333 -0.4666666666666667 0  -0.8666666666666667 -0.4666666666666667 0  -0.8 -0.4666666666666667 0  -0.7333333333333334 -0.4666666666666667 0  -0.6666666666666667 -0.4666666666666667 0  -0.6 -0.4666666666666667 0  -0.5333333333333333 -0.4666666666666667 0  -0.4666666666666667 -0.4666666666666667 0  -0.4 -0.4666666666666667 0  -0.3333333333333334 -0.4666666666666667 0  -0.2666666666666667 -0.4666666666666667 0  -0.2 -0.4666666666666667 0  -0.1333333333333333 -0.4666666666666667 0  -0.06666666666666665 -0.4666666666666667 0  0 -0.4666666666666667 0  0.06666666666666665 -0.4666666666666667 0  0.1333333333333333 -0.4666666666666667 0  0.2 -0.4666666666666667 0  0.2666666666666666 -0.4666666666666667 0  0.3333333333333333 -0.4666666666666667 0  0.3999999999999999 -0.4666666666666667 0  0.4666666666666666 -0.4666666666666667 0  0.5333333333333334 -0.4666666666666667 0  0.6000000000000001 -0.4666666666666667 0  0.6666666666666667 -0.4666666666666667 0  0.7333333333333334 -0.4666666666666667 0  0.8 -0.4666666666666667 0  0.8666666666666667 -0.4666666666666667 0  0.9333333333333333 -0.4666666666666667 0  1 -0.4666666666666667 0  -1 -0.4 0  -0.9333333333333333 -0.4 0  -0.8666666666666667 -0.4 0  -0.8 -0.4 0  -0.7333333333333334 -0.4 0  -0.6666666666666667 -0.4 0  -0.6 -0.4 0  -0.5333333333333333 -0.4 0  -0.4666666666666667 -0.4 0  -0.4 -0.4 0  -0.3333333333333334 -0.4 0  -0.2666666666666667 -0.4 0  -0.2 -0.4 0  -0.1333333333333333 -0.4 0  -0.06666666666666665 -0.4 0  0 -0.4 0  0.06666666666666665 -0.4 0  0.1333333333333333 -0.4 0  0.2 -0.4 0  0.2666666666666666 -0.4 0  0.3333333333333333 -0.4 0  0.3999999999999999 -0.4 0  0.4666666666666666 -0.4 0  0.5333333333333334 -0.4 0  0.6000000000000001 -0.4 0  0.6666666666666667 -0.4 0  0.7333333333333334 -0.4 0 
[...]
<PointData  Scalars="f_24"> 
<DataArray  type="Float64"  Name="f_24"  format="ascii">0.0000000000000000e+00  0.0000000000000000e+00  0.0000000000000000e+00  0.0000000000000000e+00  0.0000000000000000e+00  0.0000000000000000e+00  0.0000000000000000e+00  0.0000000000000000e+00  0.0000000000000000e+00  0.0000000000000000e+00  0.0000000000000000e+00  0.0000000000000000e+00  0.0000000000000000e+00  0.0000000000000000e+00  0.0000000000000000e+00  0.0000000000000000e+00  0.0000000000000000e+00  0.0000000000000000e+00  0.0000000000000000e+00  0.0000000000000000e+00  0.0000000000000000e+00  0.0000000000000000e+00  0.0000000000000000e+00  0.0000000000000000e+00  0.0000000000000000e+00  4.0359077346576526e-08  0.0000000000000000e+00  -2.4474962273861503e-07  0.0000000000000000e+00  0.0000000000000000e+00  9.7531345167409587e+00  0.0000000000000000e+00  8.9271714007666446e+06  9.7735290090668574e+06  1.4222134697962344e+07  1.0283814249796022e+07  1.4070326019683238e+07  8.0886476506960755e+06  1.3411610056606181e+07  5.7940449764296636e+06  1.2568241264786812e+07  4.1963037701178305e+06  1.2272027311279878e+07  2.5942044120862316e+06  1.2783184995153451e+07  1.3942736016656337e+06  1.3358928805510765e+07  9.7421922540380654e+05  1.4189425779931145e+07  9.2972525364228117e+05  1.5530333661035767e+07  1.4505570090856326e+06  1.8025709863643073e+07  9.3622648703533714e+05  2.6321777837896992e+07  -4.1053547104860740e+06  4.5830690180395789e+07  -1.3702753533813935e+07  7.5863959966123238e+07  -8.4253151983174831e+06  1.6489445792165509e+08  8.5163046100432869e+00  0.0000000000000000e+00  9.7735289936874900e+06  1.0780721855368437e+07  4.4221203409456648e+06  2.0576651882379551e+06  -2.7345153182893922e+06  -2.4950612558933096e+06  -6.1626146760857217e+06  -4.9238384319146303e+06  -6.8623844414264672e+06  -5.7712428888166156e+06  -7.5616206446268493e+06  -5.5120867818056112e+06  -7.8494017875669301e+06  -5.9168840278086439e+06  -7.4207996880800286e+06  -6.4928672297409307e+06  -7.5116505182149466e+06  -6.7641273093758794e+06  -7.6216160179108130e+06  -7.2930334592186604e+06  -8.7183896416873019e+06  -5.3513596261826977e+06  -1.5130464682203410e+07  -7.1548652291368367e+05  -2.4751816250843357e+07  2.4766755781718572e+06  -2.1411434620234411e+07  -1.3182639473054381e+07  -8.4253213377174120e+06  7.4010156166037016e+00  -5.6677267118392794e-09  1.4222134691387635e+07  4.4221203436677922e+06  1.7042749598098292e+06  -3.2634978519986928e+06  1.1859145521524344e+06  -3.4005510321364733e+06  3.0369013633473562e+06  -1.5749525018049402e+06  5.1982038177411212e+06  -1.6601255763916608e+06  7.5545179135157140e+06  -1.9520753376894484e+06  8.4127931369538438e+06  -1.7618581048532310e+06  9.2166865680766720e+06  -2.6091006372359577e+06  1.0645528186510811e+07  -3.4252752113320958e+06  1.1075710956488889e+07  -4.1631211831458258e+06  1.3474107214300461e+07  -8.4452462631360199e+06  2.2541271243763991e+07  -1.4008110501540050e+07  3.4858415153351501e+07  -2.2632987487184189e+07  4.1687967220859155e+07  -2.1411434198017213e+07  7.5863961158664271e+07  6.3990314653016966e+00  0.0000000000000000e+00  1.0283814202071434e+07  2.0576652031764644e+06  -3.2634978564459202e+06  5.8028415116522636e+05  -3.3742043501555547e+06  3.6311363341640210e+05  -2.5995261022765678e+06  -2.2311184258028059e+05  -4.2691823770241728e+06  -2.6302581204516324e+05  -5.0827300727278972e+06  -1.5613998246544427e+06  -4.8395875576445665e+06  -2.2288412646412645e+06  -5.4863997821640130e+06  -2.0370052247754333e+06  -5.5452450881295130e+06  -3.0746022506445064e+06  -4.3215755643425118e+06  -3.1251159031261555e+06  -7.1042488417718802e+06  1.2913156820277197e+05  -1.6202466089091545e+07  2.5343459607974552e+06  -2.3112842316797271e+07  9.2386526067685355e+06  -2.2632993946248334e+07  2.4766799373981091e+06  -1.3702758673834775e+07  5.5024054307681691e+00  -1.2906066224188853e-08  1.4070326006236015e+07  -2.7345152899146606e+06  1.1859145571196664e+06  -3.3742043529632450e+06  9.9889258166690159e+05  -2.3587027102687359e+06  2.1619976676376690e+06  -3.5687171615148387e+06  4.3138429692030419e+06  -3.3308243986683660e+06  4.9444992781212097e+06  -2.7356617090357905e+06  6.3637228254056880e+06  -3.6527872881106702e+06  8.1488469634951297e+06  -4.2333593787169922e+06  8.3524849888771707e+06  -3.9726062632564767e+06  8.7222615653920230e+06  -6.5298478317926303e+06  1.4623693021004407e+07  -1.0841143728377894e+07  2.4204021611461952e+07  -1.5496910707102718e+07  2.8473526459012244e+07  -2.3112850119303893e+07  3.4858422502820514e+07  -2.4751817046348386e+07  4.5830689772786483e+07  4.7034792229653553e+00  0.0000000000000000e+00  8.0886475812968547e+06  -2.4950612134487820e+06  -3.4005510718078665e+06  3.6311364223854331e+05  -2.3587027139067580e+06  1.6571099584637890e+06  -3.7066967875967110e+06  2.3839042529224372e+06  -3.5650961618716600e+06  1.1195579874836016e+06  -3.5935388334952099e+06  1.0981471028891862e+06  -4.7036803424880514e+06  1.0631871340318106e+06  -4.7331403034888310e+06  -7.8675738722508613e+04  -3.7166384292528154e+06  -1.0448700667749679e+06  -4.0687738452369459e+06  6.3591615631883999e+05  -9.3779950482835900e+06  1.5917497926786595e+06  -1.4059452614900135e+07  4.3308642993563805e+06  -1.5496929401189262e+07  2.5343604057367216e+06  -1.4008116003100062e+07  -7.1548714664058993e+05  -4.1053564599310351e+06  3.9948838980570969e+00  6.2382127090859422e-09  1.3411610049489919e+07  -6.1626146341774222e+06  3.0369013594136150e+06  -2.5995260863819849e+06  2.1619976710946541e+06  -3.7066967915006480e+06  2.8726765800637016e+06  -3.3532112023731633e+06  2.8453110568709671e+06  -3.3620224152206830e+06  4.7500049598560706e+06  -4.1369219311751486e+06  5.9178223829949936e+06  -3.9612783308193479e+06  6.4338695282479525e+06  -4.0124282522387542e+06  6.9229645581654897e+06  -4.7425794452230437e+06  8.9570388756536208e+06  -7.5200616101483190e+06  1.5090413773372306e+07  -9.8059637015999332e+06  1.8459614626888908e+07  -1.4059485088086672e+07  2.4204048376072664e+07  -1.6202471477603564e+07  2.2541266478808425e+07  -1.5130459524498077e+07  2.6321777006567489e+07  3.3695394028386492e+00  0.0000000000000000e+00  5.7940448846493457e+06  -4.9238383720039632e+06  -1.5749525671249845e+06  -2.2311181901880042e+05  -3.5687171972484989e+06  2.3839042681327951e+06  -3.3532112087854235e+06  2.4058316628318485e+06  -3.4621700323885800e+06  3.4153422485151934e+06  -4.1903398203282827e+06  2.6788862094143103e+06  -3.9379295622101603e+06  2.1699422282436495e+06  -4.3318260967465956e+06  1.8266711924963382e+06  -3.7497769836492091e+06  1.0757079785048342e+06  -4.9032245643050885e+06  1.9434441281679601e+06  -8.8602374461200498e+06  2.6276392957480429e+06  -9.8060242230919022e+06  1.5917984561529905e+06  -1.0841154487262119e+07  1.2912011301567088e+05  -8.4452375319125280e+06  -5.3513606076215738e+06  9.3622293741466175e+05  2.8206546658687293e+00  2.1626249052091783e-08  1.2568241265426401e+07  -6.8623843802912477e+06  5.1982038039940270e+06  -4.2691823543566763e+06  4.3138429850930627e+06  -3.5650961587862833e+06  2.8453110617361180e+06  -3.4621700357952588e+06  3.9031237598143793e+06  -4.0994659794903090e+06  3.8351383419211307e+06  -3.7458112250952013e+06  5.2102344769502431e+06  -4.6922152319705030e+06  6.2254934591847891e+06  -4.2921067465591840e+06  5.5457159397887355e+06  -4.3709999175858963e+06  8.6849961451355796e+06  -6.8288675255443817e+06  1.2399481095054233e+07  -8.8603409063917678e+06  1.5090498750355925e+07  -9.3780099714616220e+06  1.4623668154870367e+07  -7.1042268523155786e+06  1.3474103561556943e+07  -8.7183931698521972e+06  1.8025712189802844e+07  2.3417277529467975e+00  0.0000000000000000e+00  4.1963036600166447e+06  -5.7712428169366065e+06  -1.6601256828474819e+06  -2.6302575184445421e+05  -3.3308244691871391e+06  1.1195580107174620e+06  -3.3620224470045506e+06  3.4153422666283054e+06  -4.0994659902216285e+06  3.3378778900544331e+06  -3.6757104348045825e+06  4.2683488604947403e+06  -4.9796442774950257e+06  3.7077097615949488e+06  -3.9863433518375531e+06  1.8340293318628962e+06  -2.7825551146716345e+06  2.2059575988283241e+06  -6.3866168172630491e+06  3.4869281123536103e+06  -6.8290395775857409e+06  1.9435865286596867e+06  -7.5200853284905432e+06  6.3586805340909760e+05  -6.5298070106782950e+06  -3.1251227020164626e+06  -4.1631323538576527e+06  -7.2930258046095259e+06  1.4505546740226650e+06  1.9265450897266101e+00  0.0000000000000000e+00  1.2272027322654016e+07  -7.5616205787649471e+06  7.5545179144429239e+06  -5.0827300431774985e+06  4.9444992855750825e+06  -3.5935388160361378e+06  4.7500049830570463e+06  -4.1903398307404709e+06  3.8351383540292531e+06  -3.6757104389971788e+06  4.8009821006898163e+06  -5.2277634402790079e+06  4.6289203124563014e+06  -3.7105496703497223e+06  4.3798708862839649e+06  -3.4527085789467497e+06  5.0808046482021669e+06  -5.4987193750650827e+06  9.1345488308498543e+06  -6.3868840725630391e+06  8.6852222979513481e+06  -4.9032572136133742e+06  8.9569514613257442e+06  -4.0686980487604411e+06  8.7222489958788604e+06  -4.3215958735683309e+06  1.1075726471198648e+07  -7.6216168868449219e+06  1.5530331037825624e+07  1.5691830164891336e+00  0.0000000000000000e+00  2.5942042692054873e+06  -5.5120866813431876e+06  -1.9520754907080412e+06  -1.5613997472351801e+06  -2.7356618075415674e+06  1.0981471584834184e+06  -4.1369220142027629e+06  2.6788862464838275e+06  -3.7458112613198268e+06  4.2683488837886490e+06  -5.2277634595594825e+06  4.1110539662347073e+06  -3.2423040666948194e+06  3.6373723371787616e+06  -4.3388537214138210e+06  3.1106499171246057e+06  -4.0662228122171154e+06  3.7657189040619256e+06  -5.4991084322091984e+06  2.2062947933431738e+06  -4.3710440629542582e+06  1.0755602341674715e+06  -4.7424519456553096e+06  -1.0448900258388871e+06  -3.9726465772234043e+06  -3.0745715105774873e+06  -3.4252786864061388e+06  -6.7641344828712335e+06  9.2972739024603192e+05  1.2640062333696283e+00  -1.7587883912415309e-07  1.2783185031009505e+07  -7.8494017192820227e+06  8.4127931406252570e+06  -4.8395875054902742e+06  6.3637228423480680e+06  -4.7036803378815809e+06  5.9178224233285878e+06  -3.9379295635628342e+06  5.2102345134509793e+06  -4.9796443094490627e+06  4.6289203433585847e+06  -3.2423040736585404e+06  4.1472092173068584e+06  -5.4446243260635016e+06  4.6959130176472934e+06  -2.8198805741012115e+06  3.9979324859088520e+06  -4.0667437692411882e+06  5.0812712301589129e+06  -2.7826088039056868e+06  5.5454840827668309e+06  -3.7495744761121315e+06  6.9229354813419413e+06  -3.7167091592044057e+06  8.3525401655980526e+06  -5.5452489619766288e+06  1.0645511356410662e+07  -7.5116409419369539e+06  1.4189426049017292e+07  1.0056685777441008e+00  0.0000000000000000e+00  1.3942734105992313e+06  -5.9168839058522172e+06  -1.7618582956539369e+06  -2.2288411594582340e+06  -3.6527874531519949e+06  1.0631872377351811e+06  -3.9612784577329517e+06  2.1699422992278077e+06  -4.6922153404068481e+06  3.7077098305224883e+06  -3.7105497228806289e+06  3.6373723645495847e+06  -5.4446243612886397e+06  4.6768080427284017e+06  -1.7100405052818656e+06  5.2619618952835724e+05  -2.8205182529335851e+06  3.1112433286977443e+06  -3.4527701516253264e+06  1.8336954471042394e+06  -4.2918114852242013e+06  1.8266337012818160e+06  -4.0125471582646230e+06  -7.8582830738733435e+04  -4.2333659997395240e+06  -2.0370372956267837e+06  -2.6090825941968602e+06  -6.4928654807832148e+06  9.7421355138445739e+05  7.8911286875201914e-01  1.1246486559741404e-08  1.3358928865790907e+07  -7.4207995984230824e+06  9.2166865819057487e+06  -5.4863997381076952e+06  8.1488470206881398e+06  -4.7331403056641901e+06  6.4338695879830113e+06  -4.3318261255288515e+06  6.2254935499448497e+06  -3.9863433974049753e+06  4.3798709534913637e+06  -4.3388537986046877e+06  4.6959131189221926e+06  -1.7100405479887922e+06  -1.7464710427559790e+05  -1.7107471827886323e+06  4.6966009547821060e+06  -4.3389191964889448e+06  4.3794336434470071e+06  -3.9859471598120639e+06  6.2254500187204424e+06  -4.3320080594834471e+06  6.4340131914673951e+06  -4.7331470891846735e+06  8.1487900095858527e+06  -5.4863653151997505e+06  9.2166898836894240e+06  -7.4208119826796977e+06  1.3358933016755231e+07  6.0957090729630992e-01  0.0000000000000000e+00  9.7421897268092039e+05  -6.4928670752610900e+06  -2.6091009108400964e+06  -2.0370050501389890e+06  -4.2333596288373806e+06  -7.8675587903307329e+04  -4.0124284605032816e+06  1.8266713496671419e+06  -4.2921069503141548e+06  1.8340294660847997e+06  -3.4527087531101299e+06  3.1106500739934891e+06  -2.8198806976181883e+06  5.2619618949992536e+05  -1.7107471400679001e+06  4.6775311080067111e+06  -5.4446914067653157e+06  3.6368562871259395e+06  -3.7100663122742642e+06  3.7076642513959911e+06  -4.6924701111724926e+06  2.1701458913555075e+06  -3.9612841945834756e+06  1.0630950677158555e+06  -3.6527313392453170e+06  -2.2288341648030384e+06  -1.7618839025982285e+06  -5.9168736120045502e+06  1.3942748217963730e+06  4.6256347604335885e-01  7.7033590955826834e-09  1.4189425874689339e+07  -7.5116504207978072e+06  1.0645528253151005e+07  -5.5452450678184656e+06  8.3524850876468951e+06  -3.7166384525223072e+06  6.9229646930396669e+06  -3.7497770746998158e+06  5.5457160913780788e+06  -2.7825551985128415e+06  5.0808047886693133e+06  -4.0662228843627791e+06  3.9979324858464622e+06  -2.8205181293374007e+06  4.6966008535175435e+06  -5.4446913715412244e+06  4.1466634603727111e+06  -3.2417691982923057e+06  4.6288753174551083e+06  -4.9799647464044578e+06  5.2104967344626170e+06  -3.9379303631664105e+06  5.9176861503978772e+06  -4.7035955301363571e+06  6.3637355152469184e+06  -4.8396308061510287e+06  8.4128113976329956e+06  -7.8493955905507598e+06  1.2783178230801780e+07  3.4390034406320374e-01  0.0000000000000000e+00  9.2972488769771229e+05  -6.7641270709010791e+06  -3.4252756203097226e+06  -3.0746019992483617e+06  -3.9726066128383293e+06  -1.0448698353381002e+06  -4.7425797701456118e+06  1.0757081909128751e+06  -4.3710001516621243e+06  2.2059577164939325e+06  -5.4987195153835742e+06  3.7657189040243789e+06  -4.0667436969781499e+06  3.1112431717301221e+06  -4.3389191193458214e+06  3.6368562597400569e+06  -3.2417691913311048e+06  4.1110095803643716e+06  -5.2281238017172404e+06  4.2686545961521929e+06  -3.7458058786749928e+06  2.6787045875899349e+06  -4.1368071790543748e+06  1.0981685356010715e+06  -2.7357298014032091e+06  -1.5613704682967956e+06  -1.9520639274603671e+06  -5.5121028667698447e+06  2.5942075271153394e+06  2.4968024362856858e-01  -8.2298557378547960e-09  1.5530333822335202e+07  -7.6216159109248472e+06  1.1075711068905985e+07  -4.3215755296607576e+06  8.7222616966789272e+06  -4.0687738719615652e+06  8.9570390214101225e+06  -4.9032245749135893e+06  8.6849962048836295e+06  -6.3866167694235714e+06  9.1345488307532798e+06  -5.4991082918554638e+06  5.0812710896406341e+06  -3.4527699773353543e+06  4.3794335763424458e+06  -3.7100662596944221e+06  4.6288752865767833e+06  -5.2281237824342893e+06  4.8013039212739915e+06  -3.6757002240714058e+06  3.8349216398512856e+06  -4.1901986716758851e+06  4.7500365039466154e+06  -3.5936338001721147e+06  4.9445407920450224e+06  -5.0827094380430989e+06  7.5544886709742686e+06  -7.5616127565573948e+06  1.2272031759179613e+07  1.7629091661679558e-01  0.0000000000000000e+00  1.4505564641767850e+06  -7.2930331324469289e+06  -4.1631217146565695e+06  -3.1251156232934892e+06  -6.5298482446291968e+06  6.3591637211137020e+05  -7.5200618946828023e+06  1.9434442066716440e+06  -6.8288676571286153e+06  3.4869281119837021e+06  -6.3868841199782686e+06  2.2062946756602502e+06  -2.7826087201291351e+06  1.8336953126894757e+06  -3.9859471144242850e+06  3.7076641823548209e+06  -4.9799647145098131e+06  4.2686545728307385e+06  -3.6757002198799453e+06  3.3376479151362581e+06  -4.0993097782773217e+06  3.4153824844121938e+06  -3.3621423306753039e+06  1.1196113175914725e+06  -3.3307941548551368e+06  -2.6306991945067717e+05  -1.6601145180297487e+06  -5.7712314891163455e+06  4.1962953256235076e+06  1.2040906810791313e-01  0.0000000000000000e+00  1.8025710064687546e+07  -8.7183894161903095e+06  1.3474107304162635e+07  -7.1042487231585560e+06  1.4623693139398646e+07  -9.3779949804151282e+06  1.5090413835282968e+07  -8.8602373229227439e+06  1.2399481094855729e+07  -6.8290394453197988e+06  8.6852222375939675e+06  -4.3710438288352080e+06  5.5454839314111983e+06  -4.2918112811320275e+06  6.2254499282671418e+06  -4.6924700025065569e+06  5.2104966980969375e+06  -3.7458058423772641e+06  3.8349216277722637e+06  -4.0993097675438952e+06  3.9031674242083668e+06  -3.4623046181879076e+06  2.8453727396601713e+06  -3.5650559780244459e+06  4.3137836060192175e+06  -4.2691669535105051e+06  5.1982229481703797e+06  -6.8624008523741541e+06  1.2568243206833068e+07  7.9000663998417389e-02  0.0000000000000000e+00  9.3622573139423155e+05  -5.3513592415620983e+06  -8.4452469216554724e+06  1.2913184031193533e+05  -1.0841144174666116e+07  1.5917499250380220e+06  -9.8059639427363761e+06  2.6276392950602896e+06  -8.8603410293054767e+06  1.9435864498739976e+06  -4.9032572023321576e+06  1.0755600215784144e+06  -3.7495743855533651e+06  1.8266335435007154e+06  -4.3320080312393578e+06  2.1701458199438513e+06  -3.9379303621007316e+06  2.6787045503563718e+06  -4.1901986613486987e+06  3.4153824662695057e+06  -3.4623046147832694e+06  2.4058963914057887e+06  -3.3531651767412666e+06  2.3838335452118176e+06  -3.5686992235701522e+06  -2.2308416395440631e+05  -1.5749786432640422e+06  -4.9238352381318510e+06  5.7940507085234122e+06  4.9319554297001231e-02  1.6543537862658730e-08  2.6321777983464800e+07  -1.5130464247875014e+07  2.2541271363390762e+07  -1.6202465909391737e+07  2.4204021743353717e+07  -1.4059452423951142e+07  1.8459614625371996e+07  -9.8060239790672138e+06  1.5090498687705195e+07  -7.5200850442525130e+06  8.9569513149656933e+06  -4.7424516202218216e+06  6.9229353474114090e+06  -4.0125469489092063e+06  6.4340131327158529e+06  -3.9612840668863705e+06  5.9176861106341006e+06  -4.1368070956652467e+06  4.7500364809472747e+06  -3.3621422987934491e+06  2.8453727348262197e+06  -3.3531651703260550e+06  2.8726015932827396e+06  -3.7066771504450478e+06  2.1620317127004508e+06  -2.5995594155544392e+06  3.0369043234086554e+06  -6.1626012080466785e+06  1.3411602960563306e+07  2.8910217252709904e-02  0.0000000000000000e+00  -4.1053558310480481e+06  -7.1548595671176282e+05  -1.4008111384842569e+07  2.5343461943161604e+06  -1.5496911181454109e+07  4.3308643001781097e+06  -1.4059485279497128e+07  1.5917983203522335e+06  -9.3780100373856090e+06  6.3586783858658932e+05  -4.0686980217559105e+06  -1.0448902584904458e+06  -3.7167091377975889e+06  -7.8582983578942309e+04  -4.7331470888592433e+06  1.0630949625107504e+06  -4.7035955358647183e+06  1.0981684792453677e+06  -3.5936338180952170e+06  1.1196112941079943e+06  -3.5650559812236633e+06  2.3838335299675297e+06  -3.7066771465443093e+06  1.6571464524012625e+06  -2.3587406298360466e+06  3.6311652009168646e+05  -3.4005321923901066e+06  -2.4950735188277126e+06  8.0886468378355149e+06  1.5605015226785519e-02  0.0000000000000000e+00  4.5830690184968285e+07  -2.4751815571950942e+07  3.4858415367089361e+07  -2.3112841925648347e+07  2.8473526450491499e+07  -1.5496928914051514e+07  2.4204048248678558e+07  -1.0841154040223043e+07  1.4623668032030160e+07  -6.5298065995148458e+06  8.7222488652621508e+06  -3.9726462247508820e+06  8.3525400706795603e+06  -4.2333657456186600e+06  8.1487899560112730e+06  -3.6527311712214029e+06  6.3637355005737208e+06  -2.7357297012982718e+06  4.9445407856286289e+06  -3.3307940837278157e+06  4.3137835904436344e+06  -3.5686991877009403e+06  2.1620317092815386e+06  -2.3587406261947760e+06  9.9889534005574079e+05  -3.3741817756722462e+06  1.1858982534059433e+06  -2.7345163102703854e+06  1.4070331971605092e+07  7.5255667567445603e-03  0.0000000000000000e+00  -1.3702755457552612e+07  2.4766763487884081e+06  -2.2632988440425109e+07  9.2386525949286334e+06  -2.3112850554141659e+07  2.5343601465580040e+06  -1.62