<?xml version="1.0"?>
<VTKFile type="UnstructuredGrid"  version="0.1"  >
<UnstructuredGrid>
<Piece  NumberOfPoints="961" NumberOfCells="1800">
<Points>
<DataArray  type="Float64"  NumberOfComponents="3"  format="ascii">-1 -1 0  -0.9333333333333333 -1 0  -0.8666666666666667 -1 0  -0.8 -1 0  -0.7333333333333334 -1 0  -0.6666666666666667 -1 0  -0.6 -1 0  -0.5333333333333333 -1 0  -0.4666666666666667 -1 0  -0.4 -1 0  -0.3333333333333334 -1 0  -0.2666666666666667 -1 0  -0.2 -1 0  -0.1333333333333333 -1 0  -0.06666666666666665 -1 0  0 -1 0  0.06666666666666665 -1 0  0.1333333333333333 -1 0  0.2 -1 0  0.2666666666666666 -1 0  0.3333333333333333 -1 0  0.3999999999999999 -1 0  0.4666666666666666 -1 0  0.5333333333333334 -1 0  0.6000000000000001 -1 0  0.6666666666666667 -1 0  0.7333333333333334 -1 0  0.8 -1 0  0.8666666666666667 -1 0  0.9333333333333333 -1 0  1 -1 0  -1 -0.9333333333333333 0  -0.9333333333333333 -0.9333333333333333 0  -0.8666666666666667 -0.9333333333333333 0  -0.8 -0.9333333333333333 0  -0.7333333333333334 -0.9333333333333333 0  -0.6666666666666667 -0.9333333333333333 0  -0.6 -0.9333333333333333 0  -0.5333333333333333 -0.9333333333333333 0  -0.4666666666666667 -0.9333333333333333 0  -0.4 -0.9333333333333333 0  -0.3333333333333334 -0.9333333333333333 0  -0.2666666666666667 -0.9333333333333333 0  -0.2 -0.9333333333333333 0  -0.1333333333333333 -0.9333333333333333 0  -0.06666666666666665 -0.9333333333333333 0  0 -0.9333333333333333 0  0.06666666666666665 -0.9333333333333333 0  0.1333333333333333 -0.9333333333333333 0  0.2 -0.9333333333333333 0  0.2666666666666666 -0.9333333333333333 0  0.3333333333333333 -0.9333333333333333 0  0.3999999999999999 -0.9333333333333333 0  0.4666666666666666 -0.9333333333333333 0  0.5333333333333334 -0.9333333333333333 0  0.6000000000000001 -0.9333333333333333 0  0.6666666666666667 -0.9333333333333333 0  0.7333333333333334 -0.9333333333333333 0  0.8 -0.9333333333333333 0  0.8666666666666667 -0.9333333333333333 0  0.9333333333333333 -0.9333333333333333 0  1 -0.9333333333333333 0  -1 -0.8666666666666667 0  -0.9333333333333333 -0.8666666666666667 0  -0.8666666666666667 -0.8666666666666667 0  -0.8 -0.8666666666666667 0  -0.7333333333333334 -0.8666666666666667 0  -0.6666666666666667 -0.8666666666666667 0  -0.6 -0.8666666666666667 0  -0.5333333333333333 -0.8666666666666667 0  -0.4666666666666667 -0.8666666666666667 0  -0.4 -0.8666666666666667 0  -0.3333333333333334 -0.8666666666666667 0  -0.2666666666666667 -0.8666666666666667 0  -0.2 -0.8666666666666667 0  -0.1333333333333333 -0.8666666666666667 0  -0.06666666666666665 -0.8666666666666667 0  0 -0.8666666666666667 0  0.06666666666666665 -0.8666666666666667 0  0.1333333333333333 -0.8666666666666667 0  0.2 -0.8666666666666667 0  0.2666666666666666 -0.8666666666666667 0  0.3333333333333333 -0.8666666666666667 0  0.3999999999999999 -0.8666666666666667 0  0.4666666666666666 -0.8666666666666667 0  0.5333333333333334 -0.8666666666666667 0  0.6000000000000001 -0.8666666666666667 0  0.6666666666666667 -0.8666666666666667 0  0.7333333333333334 -0.8666666666666667 0  0.8 -0.8666666666666667 0  0.8666666666666667 -0.8666666666666667 0  0.9333333333333333 -0.8666666666666667 0  1 -0.8666666666666667 0  -1 -0.8 0  -0.9333333333333333 -0.8 0  -0.8666666666666667 -0.8 0  -0.8 -0.8 0  -0.7333333333333334 -0.8 0  -0.6666666666666667 -0.8 0  -0.6 -0.8 0  -0.5333333333333333 -0.8 0  -0.4666666666666667 -0.8 0  -0.4 -0.8 0  -0.3333333333333334 -0.8 0  -0.2666666666666667 -0.8 0  -0.2 -0.8 0  -0.1333333333333333 -0.8 0  -0.06666666666666665 -0.8 0  0 -0.8 0  0.06666666666666665 -0.8 0  0.1333333333333333 -0.8 0  0.2 -0.8 0  0.2666666666666666 -0.8 0  0.3333333333333333 -0.8 0  0.3999999999999999 -0.8 0  0.4666666666666666 -0.8 0  0.5333333333333334 -0.8 0  0.6000000000000001 -0.8 0  0.6666666666666667 -0.8 0  0.7333333333333334 -0.8 0  0.8 -0.8 0  0.8666666666666667 -0.8 0  0.9333333333333333 -0.8 0  1 -0.8 0  -1 -0.7333333333333334 0  -0.9333333333333333 -0.7333333333333334 0  -0.8666666666666667 -0.7333333333333334 0  -0.8 -0.7333333333333334 0  -0.7333333333333334 -0.7333333333333334 0  -0.6666666666666667 -0.7333333333333334 0  -0.6 -0.7333333333333334 0  -0.5333333333333333 -0.7333333333333334 0  -0.4666666666666667 -0.7333333333333334 0  -0.4 -0.7333333333333334 0  -0.3333333333333334 -0.7333333333333334 0  -0.2666666666666667 -0.7333333333333334 0  -0.2 -0.7333333333333334 0  -0.1333333333333333 -0.7333333333333334 0  -0.06666666666666665 -0.7333333333333334 0  0 -0.7333333333333334 0  0.06666666666666665 -0.7333333333333334 0  0.1333333333333333 -0.7333333333333334 0  0.2 -0.7333333333333334 0  0.2666666666666666 -0.7333333333333334 0  0.3333333333333333 -0.7333333333333334 0  0.3999999999999999 -0.7333333333333334 0  0.4666666666666666 -0.7333333333333334 0  0.5333333333333334 -0.7333333333333334 0  0.6000000000000001 -0.7333333333333334 0  0.6666666666666667 -0.7333333333333334 0  0.7333333333333334 -0.7333333333333334 0  0.8 -0.7333333333333334 0  0.8666666666666667 -0.7333333333333334 0  0.9333333333333333 -0.7333333333333334 0  1 -0.7333333333333334 0  -1 -0.6666666666666667 0  -0.9333333333333333 -0.6666666666666667 0  -0.8666666666666667 -0.6666666666666667 0  -0.8 -0.6666666666666667 0  -0.7333333333333334 -0.6666666666666667 0  -0.6666666666666667 -0.6666666666666667 0  -0.6 -0.6666666666666667 0  -0.5333333333333333 -0.6666666666666667 0  -0.4666666666666667 -0.6666666666666667 0  -0.4 -0.6666666666666667 0  -0.3333333333333334 -0.6666666666666667 0  -0.2666666666666667 -0.6666666666666667 0  -0.2 -0.6666666666666667 0  -0.1333333333333333 -0.6666666666666667 0  -0.06666666666666665 -0.6666666666666667 0  0 -0.6666666666666667 0  0.06666666666666665 -0.6666666666666667 0  0.1333333333333333 -0.6666666666666667 0  0.2 -0.6666666666666667 0  0.2666666666666666 -0.6666666666666667 0  0.3333333333333333 -0.6666666666666667 0  0.3999999999999999 -0.6666666666666667 0  0.4666666666666666 -0.6666666666666667 0  0.5333333333333334 -0.6666666666666667 0  0.6000000000000001 -0.6666666666666667 0  0.6666666666666667 -0.6666666666666667 0  0.7333333333333334 -0.6666666666666667 0  0.8 -0.6666666666666667 0  0.8666666666666667 -0.6666666666666667 0  0.9333333333333333 -0.6666666666666667 0  1 -0.6666666666666667 0  -1 -0.6 0  -0.9333333333333333 -0.6 0  -0.8666666666666667 -0.6 0  -0.8 -0.6 0  -0.7333333333333334 -0.6 0  -0.6666666666666667 -0.6 0  -0.6 -0.6 0  -0.5333333333333333 -0.6 0  -0.4666666666666667 -0.6 0  -0.4 -0.6 0  -0.3333333333333334 -0.6 0  -0.2666666666666667 -0.6 0  -0.2 -0.6 0  -0.1333333333333333 -0.6 0  -0.06666666666666665 -0.6 0  0 -0.6 0  0.06666666666666665 -0.6 0  0.1333333333333333 -0.6 0  0.2 -0.6 0  0.2666666666666666 -0.6 0  0.3333333333333333 -0.6 0  0.3999999999999999 -0.6 0  0.4666666666666666 -0.6 0  0.5333333333333334 -0.6 0  0.6000000000000001 -0.6 0  0.6666666666666667 -0.6 0  0.7333333333333334 -0.6 0  0.8 -0.6 0  0.8666666666666667 -0.6 0  0.9333333333333333 -0.6 0  1 -0.6 0  -1 -0.5333333333333333 0  -0.9333333333333333 -0.5333333333333333 0  -0.8666666666666667 -0.5333333333333333 0  -0.8 -0.5333333333333333 0  -0.7333333333333334 -0.5333333333333333 0  -0.6666666666666667 -0.5333333333333333 0  -0.6 -0.5333333333333333 0  -0.5333333333333333 -0.5333333333333333 0  -0.4666666666666667 -0.5333333333333333 0  -0.4 -0.5333333333333333 0  -0.3333333333333334 -0.5333333333333333 0  -0.2666666666666667 -0.5333333333333333 0  -0.2 -0.5333333333333333 0  -0.1333333333333333 -0.5333333333333333 0  -0.06666666666666665 -0.5333333333333333 0  0 -0.5333333333333333 0  0.06666666666666665 -0.5333333333333333 0  0.1333333333333333 -0.5333333333333333 0  0.2 -0.5333333333333333 0  0.2666666666666666 -0.5333333333333333 0  0.3333333333333333 -0.5333333333333333 0  0.3999999999999999 -0.5333333333333333 0  0.4666666666666666 -0.5333333333333333 0  0.5333333333333334 -0.5333333333333333 0  0.6000000000000001 -0.5333333333333333 0  0.6666666666666667 -0.5333333333333333 0  0.7333333333333334 -0.5333333333333333 0  0.8 -0.5333333333333333 0  0.8666666666666667 -0.5333333333333333 0  0.9333333333333333 -0.5333333333333333 0  1 -0.5333333333333333 0  -1 -0.4666666666666667 0  -0.9333333333333333 -0.4666666666666667 0  -0.8666666666666667 -0.4666666666666667 0  -0.8 -0.4666666666666667 0  -0.7333333333333334 -0.4666666666666667 0  -0.6666666666666667 -0.4666666666666667 0  -0.6 -0.4666666666666667 0  -0.5333333333333333 -0.4666666666666667 0  -0.4666666666666667 -0.4666666666666667 0  -0.4 -0.4666666666666667 0  -0.3333333333333334 -0.4666666666666667 0  -0.2666666666666667 -0.4666666666666667 0  -0.2 -0.4666666666666667 0  -0.1333333333333333 -0.4666666666666667 0  -0.06666666666666665 -0.4666666666666667 0  0 -0.4666666666666667 0  0.06666666666666665 -0.4666666666666667 0  0.1333333333333333 -0.4666666666666667 0  0.2 -0.4666666666666667 0  0.2666666666666666 -0.4666666666666667 0  0.3333333333333333 -0.4666666666666667 0  0.3999999999999999 -0.4666666666666667 0  0.4666666666666666 -0.4666666666666667 0  0.5333333333333334 -0.4666666666666667 0  0.6000000000000001 -0.4666666666666667 0  0.6666666666666667 -0.4666666666666667 0  0.7333333333333334 -0.4666666666666667 0  0.8 -0.4666666666666667 0  0.8666666666666667 -0.4666666666666667 0  0.9333333333333333 -0.4666666666666667 0  1 -0.4666666666666667 0  -1 -0.4 0  -0.9333333333333333 -0.4 0  -0.8666666666666667 -0.4 0  -0.8 -0.4 0  -0.7333333333333334 -0.4 0  -0.6666666666666667 -0.4 0  -0.6 -0.4 0  -0.5333333333333333 -0.4 0  -0.4666666666666667 -0.4 0  -0.4 -0.4 0  -0.3333333333333334 -0.4 0  -0.2666666666666667 -0.4 0  -0.2 -0.4 0  -0.1333333333333333 -0.4 0  -0.06666666666666665 -0.4 0  0 -0.4 0  0.06666666666666665 -0.4 0  0.1333333333333333 -0.4 0  0.2 -0.4 0  0.2666666666666666 -0.4 0  0.3333333333333333 -0.4 0  0.3999999999999999 -0.4 0  0.4666666666666666 -0.4 0  0.5333333333333334 -0.4 0  0.6000000000000001 -0.4 0  0.6666666666666667 -0.4 0  0.7333333333333334 -0.4 0 
[...]
<PointData  Scalars="f_24"> 
<DataArray  type="Float64"  Name="f_24"  format="ascii">0.0000000000000000e+00  0.0000000000000000e+00  0.0000000000000000e+00  0.0000000000000000e+00  0.0000000000000000e+00  0.0000000000000000e+00  0.0000000000000000e+00  0.0000000000000000e+00  0.0000000000000000e+00  0.0000000000000000e+00  0.0000000000000000e+00  0.0000000000000000e+00  0.0000000000000000e+00  0.0000000000000000e+00  0.0000000000000000e+00  0.0000000000000000e+00  0.0000000000000000e+00  0.0000000000000000e+00  0.0000000000000000e+00  0.0000000000000000e+00  0.0000000000000000e+00  0.0000000000000000e+00  0.0000000000000000e+00  0.0000000000000000e+00  0.0000000000000000e+00  -2.5520441701344431e-07  0.0000000000000000e+00  2.4474962273861503e-07  0.0000000000000000e+00  0.0000000000000000e+00  1.5683178772908084e+01  0.0000000000000000e+00  9.6252739489486460e+06  9.2700505023659244e+06  1.4164300289480276e+07  8.3896038130631279e+06  1.3057268171938011e+07  5.0374031325815981e+06  1.2110190472522229e+07  2.0471613617804153e+06  1.1170820002082499e+07  1.3521119895907192e+05  1.1033705369437549e+07  -1.8898602647004679e+06  1.1973159302341245e+07  -3.5081923402134324e+06  1.2880669839215558e+07  -4.2091025083600515e+06  1.4045505245445874e+07  -4.5951909476362858e+06  1.5833667996956317e+07  -4.2783842579752477e+06  1.9104861956520416e+07  -5.3481056106067188e+06  3.0686785344252773e+07  -1.2765732987155596e+07  5.9085726269611828e+07  -2.6330079089093424e+07  1.0438359472797528e+08  -1.7760500285838146e+07  2.3805317978897509e+08  1.3694338723063213e+01  0.0000000000000000e+00  9.2700504630354494e+06  9.4416738712782338e+06  1.2326458232794446e+06  -1.0312137052552116e+06  -6.2199166730534229e+06  -4.7292323946758192e+06  -8.6736452913321108e+06  -6.1741003075341750e+06  -8.1097705220710849e+06  -6.1483104714530203e+06  -8.2454853539187163e+06  -5.0734423286327058e+06  -8.2327125700223809e+06  -5.3076929495437061e+06  -7.4798401063784771e+06  -6.0205574467257531e+06  -7.7475678086428195e+06  -6.5435302139395727e+06  -8.3037009865431096e+06  -7.9502281366495434e+06  -1.0640552980053496e+07  -6.5413833126138011e+06  -2.1469649478889268e+07  -1.8895360382623726e+06  -3.8305325348969407e+07  6.5506949395452779e+04  -3.6980407613510489e+07  -2.3462054024174545e+07  -1.7760510002964474e+07  1.1900938186638463e+01  0.0000000000000000e+00  1.4164300252554206e+07  1.2326458279545531e+06  -8.9910389734586433e+05  -5.6895761612192672e+06  1.5763932288506920e+06  -3.7689081231194846e+06  5.1671466288837921e+06  -8.0463168772203638e+05  8.0968787053220021e+06  -1.2065649731904909e+06  1.1063770423698200e+07  -1.9770531026266008e+06  1.1954798522012820e+07  -1.9436212494296830e+06  1.2966063566523442e+07  -3.2968184887014925e+06  1.5122605941271078e+07  -4.4296005157594699e+06  1.5997701113261601e+07  -5.1378661225965302e+06  1.9810256186257981e+07  -1.0928120382465981e+07  3.3122244158341996e+07  -1.9544507334187087e+07  5.0159974214530148e+07  -3.4297703120395228e+07  5.7005291355921775e+07  -3.6980407009305522e+07  1.0438359667409171e+08  1.0289733383590557e+01  0.0000000000000000e+00  8.3896037113440391e+06  -1.0312136784578916e+06  -5.6895761685613403e+06  1.2438644139292559e+06  -3.2966519391722362e+06  1.8804325519633682e+06  -2.0690033825051859e+06  9.1990187425958202e+05  -4.6543094830801291e+06  8.1819186160216387e+05  -5.8891598350340538e+06  -9.4624515306738438e+05  -5.5183831420697160e+06  -1.7460569969460401e+06  -6.4690989916055491e+06  -1.2730729366267694e+06  -6.6259151897980543e+06  -2.6802330109926257e+06  -4.8880242143182028e+06  -2.8738653317558062e+06  -8.8586943596334793e+06  1.8699851013365232e+06  -2.1701157242160697e+07  5.9054893298448846e+06  -3.1922896816379651e+07  1.4486899388410388e+07  -3.4297713433431849e+07  6.5513925537909090e+04  -2.6330087215884145e+07  8.8479460529980809e+00  -1.2934723590380451e-08  1.3057268118455863e+07  -6.2199166197884940e+06  1.5763932350442512e+06  -3.2966519408385674e+06  2.6227013419234469e+06  -1.9458398589536494e+06  3.7785752135178507e+06  -4.0680582977900673e+06  6.4979631779681360e+06  -3.9743488620413328e+06  7.1497326671982044e+06  -3.2916372615071395e+06  8.9787662016707901e+06  -4.7706462924319804e+06  1.1483000107003996e+07  -5.7264199073244641e+06  1.1801738509558192e+07  -5.2583108292310918e+06  1.2414898797235938e+07  -8.6136861327657718e+06  2.1061087701865178e+07  -1.4736095331517899e+07  3.4939207561566442e+07  -2.1405973472025368e+07  4.2016708682958744e+07  -3.1922909401065897e+07  5.0159986019654170e+07  -3.8305326676836632e+07  5.9085725627912752e+07  7.5632613681076810e+00  0.0000000000000000e+00  5.0374029993598005e+06  -4.7292323164057741e+06  -3.7689081849263529e+06  1.8804325673107672e+06  -1.9458398661855932e+06  3.1305985676537319e+06  -4.2465388075155653e+06  3.9829928456385969e+06  -4.2170318141526794e+06  2.1378965168657117e+06  -4.3486668971582241e+06  2.1143190211681779e+06  -6.0247989686993416e+06  2.2240121790533341e+06  -6.1794374699970679e+06  7.6853233281682688e+05  -4.7364719794170186e+06  -5.5209105236224784e+05  -5.2270625783271426e+06  1.8766644204928211e+06  -1.2724559961648712e+07  3.7098308517142390e+06  -1.9195571012727078e+07  7.9057546342347404e+06  -2.1406003490240157e+07  5.9055125395764392e+06  -1.9544516114625864e+07  -1.8895370806726648e+06  -1.2765735693107380e+07  6.4238300253831522e+00  8.7334977927203186e-09  1.2110190432056669e+07  -8.6736452105019465e+06  5.1671466166949570e+06  -2.0690033546644936e+06  3.7785752161074099e+06  -4.2465388113987129e+06  4.5415875466795871e+06  -4.0389306263078977e+06  4.2275403893249584e+06  -4.2782262205861500e+06  6.6742544760908652e+06  -5.5790480618371246e+06  8.2491459345724536e+06  -5.5240436024987223e+06  8.9453585753064081e+06  -5.6329947898851382e+06  9.5850384199547973e+06  -6.5347783625131818e+06  1.2578522461241396e+07  -1.0270535505716247e+07  2.1367098170000840e+07  -1.3571595658713406e+07  2.6435568313210480e+07  -1.9195623252129279e+07  3.4939250591484666e+07  -2.1701165927638557e+07  3.3122236483281057e+07  -2.1469641221273735e+07  3.0686784011108335e+07  5.4182671987523090e+00  0.0000000000000000e+00  2.0471612013358874e+06  -6.1741001992530255e+06  -8.0463179201954580e+05  9.1990191332215653e+05  -4.0680583539894638e+06  3.9829928700814107e+06  -4.0389306375498665e+06  3.6753496718371036e+06  -4.4100966938576987e+06  4.9537479469782207e+06  -5.5839516628413945e+06  4.0000047227774914e+06  -5.3696402175656874e+06  3.4187687757564047e+06  -5.9593067981113950e+06  3.0134435803472190e+06  -5.1278371609180523e+06  1.9991664365199192e+06  -6.8335601216063239e+06  3.3838520435360880e+06  -1.2233803847313903e+07  4.7851349544392610e+06  -1.3571692954302508e+07  3.7099090931104836e+06  -1.4736112590781726e+07  1.8699666609133231e+06  -1.0928106287705632e+07  -6.5413849268454397e+06  -5.3481112371745473e+06  4.5356527489214287e+00  1.1894436978650481e-08  1.1170819979304727e+07  -8.1097704111381285e+06  8.0968786736297337e+06  -4.6543094428519076e+06  6.4979631975411344e+06  -4.2170318064457132e+06  4.2275403946452783e+06  -4.4100966970497407e+06  5.5270867527679680e+06  -5.5293604449972790e+06  5.3713632675028220e+06  -5.2422371967770224e+06  7.2763006375386054e+06  -6.6632335732961111e+06  8.6272468959430847e+06  -6.1074962566491608e+06  7.6349714972347980e+06  -6.1232876987350900e+06  1.2139601580988787e+07  -9.5546825471266638e+06  1.7314611590767153e+07  -1.2233970226084789e+07  2.1367234808822561e+07  -1.2724583967574721e+07  2.1061047703335457e+07  -8.8586590089131258e+06  1.9810250298270829e+07  -1.0640558676236188e+07  1.9104865693348240e+07  3.7655312044645193e+00  0.0000000000000000e+00  1.3521101847715798e+05  -6.1483103465511370e+06  -1.2065651416020640e+06  8.1819195835306949e+05  -3.9743489718533210e+06  2.1378965543087712e+06  -4.2782262701633750e+06  4.9537479753376013e+06  -5.5293604627968706e+06  4.7480543878658684e+06  -5.1119857124262014e+06  6.1212223745764345e+06  -6.9827529088380132e+06  5.3963802528978977e+06  -5.5791818748492179e+06  2.8403367189860488e+06  -3.9125562166066105e+06  3.3635683246783917e+06  -9.0266291962562185e+06  5.3906012943219794e+06  -9.5549591960967164e+06  3.3840810189710590e+06  -1.0270573618333779e+07  1.8765870537046348e+06  -8.6136204548329543e+06  -2.8738762841371875e+06  -5.1378840391269941e+06  -7.9502158580291728e+06  -4.2783879530798681e+06  3.0979118563769070e+00  0.0000000000000000e+00  1.1033705368858358e+07  -8.2454852387746545e+06  1.1063770412767107e+07  -5.8891597829956021e+06  7.1497326718218839e+06  -4.3486668660412431e+06  6.6742545075388364e+06  -5.5839516760691106e+06  5.3713632843538914e+06  -5.1119857168977829e+06  6.7721875200602859e+06  -7.3719885452114884e+06  6.4934250632747179e+06  -5.2922195911908112e+06  6.0935867566183964e+06  -4.9590986416939599e+06  7.0569715830093604e+06  -7.7263065056298664e+06  1.2718163806280298e+07  -9.0270589507018551e+06  1.2139965231487641e+07  -6.8336126212655911e+06  1.2578381881583052e+07  -5.2269406923818002e+06  1.2414878567046363e+07  -4.8880568724702448e+06  1.5997726046080558e+07  -8.3037023979039742e+06  1.5833663772323063e+07  2.5232685689680916e+00  0.0000000000000000e+00  -1.8898604878494137e+06  -5.0734421638176506e+06  -1.9770533410520451e+06  -9.4624502941177215e+05  -3.2916374137960356e+06  2.1143191085317405e+06  -5.5790481898911921e+06  4.0000047809654297e+06  -5.2422372532697255e+06  6.1212224107960192e+06  -7.3719885762920016e+06  5.8549862934790654e+06  -4.6055774689743426e+06  5.2332734526920812e+06  -6.1167740758025497e+06  4.5549655068623982e+06  -5.7580111963440161e+06  5.4382118641259763e+06  -7.7269321030848837e+06  3.3641105284217806e+06  -6.1233586650378210e+06  1.9989288455906424e+06  -6.5345733140958529e+06  -5.5212316251224256e+05  -5.2583756261194702e+06  -2.6801835956301875e+06  -4.4296060691377688e+06  -6.5435417686396455e+06  -4.5951874706145488e+06  2.0325399689688877e+00  8.0204532981240136e-06  1.1973159344633736e+07  -8.2327124558820147e+06  1.1954798515582809e+07  -5.5183830552181192e+06  8.9787662192686442e+06  -6.0247989567516875e+06  8.2491459913124545e+06  -5.3696402164131189e+06  7.2763006903617149e+06  -6.9827529554770375e+06  6.4934251093937140e+06  -4.6055774775678907e+06  5.8522326400220273e+06  -7.6980895022842418e+06  6.5741258413026584e+06  -4.0658201218247428e+06  5.6082347741334690e+06  -5.7588488958881982e+06  7.0577218401320027e+06  -3.9126425403925898e+06  7.6345986515815211e+06  -5.1275115153683964e+06  9.5849916470516901e+06  -4.7365857088987119e+06  1.1801827219354777e+07  -6.6259214179386990e+06  1.5122578865530254e+07  -7.7475524187024320e+06  1.4045505669527069e+07  1.6171293509778470e+00  0.0000000000000000e+00  -3.5081926303881891e+06  -5.3076927564795557e+06  -1.9436215426815047e+06  -1.7460568313033835e+06  -4.7706465460650930e+06  2.2240123410718841e+06  -5.5240437980029192e+06  3.4187688864905857e+06  -6.6632337403720841e+06  5.3963803597102845e+06  -5.2922196726323990e+06  5.2332734944943534e+06  -7.6980895576956766e+06  6.6541716825808631e+06  -2.4642827795033525e+06  9.1645767702793772e+05  -4.0668455107595990e+06  4.5559197095508398e+06  -4.9591976381662022e+06  2.8397998178765033e+06  -6.1070214566665245e+06  3.0133832836361448e+06  -5.6331859767325623e+06  7.6868172233705397e+05  -5.7264305354300933e+06  -1.2731245156781157e+06  -3.2967894527064236e+06  -6.0205546443079887e+06  -4.2091116044304622e+06  1.2689046963719806e+00  3.7488288532471349e-09  1.2880669924150079e+07  -7.4798399646700164e+06  1.2966063577224517e+07  -6.4690989188025892e+06  1.1483000186570324e+07  -6.1794374693885371e+06  8.9453586612334475e+06  -5.9593068386561610e+06  8.6272470307877902e+06  -5.5791819413944911e+06  6.0935868561985474e+06  -6.1167741907919953e+06  6.5741259952259716e+06  -2.4642828425881742e+06  -2.2644876177903154e+05  -2.4654191213613977e+06  6.5752320450464543e+06  -6.1168793515150975e+06  6.0928836554463133e+06  -5.5785447857257295e+06  8.6271770319642462e+06  -5.9595993910267083e+06  8.9455895776582342e+06  -6.1794483773923712e+06  1.1482908511909306e+07  -6.4690435662757261e+06  1.2966068886534657e+07  -7.4798598787279995e+06  1.2880676598954262e+07  9.8019867330675525e-01  0.0000000000000000e+00  -4.2091028869107980e+06  -6.0205572082499517e+06  -3.2968189061308028e+06  -1.2730726644737802e+06  -5.7264202909331182e+06  7.6853256748783821e+05  -5.6329951090465467e+06  3.0134438227756368e+06  -6.1074965687203472e+06  2.8403369251355343e+06  -4.9590989084830666e+06  4.5549657475738758e+06  -4.0658203127662791e+06  9.1645767698701785e+05  -2.4654190582693769e+06  6.6553343818037882e+06  -7.6981973677781094e+06  5.2324436346759861e+06  -5.2914423415234936e+06  5.3963070678288797e+06  -6.6636434153782316e+06  3.4190962655175976e+06  -5.5240530229577506e+06  2.2238641303889705e+06  -4.7705563141019382e+06  -1.7460455837990576e+06  -1.9436627190099293e+06  -5.3076762038270663e+06  -3.5081903611628646e+06  7.4380863671609510e-01  -7.7033590955826834e-09  1.4045505389211761e+07  -7.7475676608463787e+06  1.5122606035731705e+07  -6.6259151560748210e+06  1.1801738653222390e+07  -4.7364720115549667e+06  9.5850386199005153e+06  -5.1278372967679705e+06  7.6349717247129316e+06  -3.9125563421590403e+06  7.0569717955959281e+06  -5.7580113056114754e+06  5.6082347740237722e+06  -4.0668453196851094e+06  6.5752318911416354e+06  -7.6981973123576175e+06  5.8513550551306112e+06  -4.6047173903866699e+06  6.4933527071015658e+06  -6.9832682226461340e+06  7.2767223454686170e+06  -5.3696415021870881e+06  8.2489268625067063e+06  -6.0246625846953429e+06  8.9787865974701624e+06  -5.5184526832946138e+06  1.1954827873109980e+07  -8.2327026007967284e+06  1.1973148409803562e+07  5.5299662713237463e-01  0.0000000000000000e+00  -4.5951914947496727e+06  -6.5435298500877731e+06  -4.4296011388123166e+06  -2.6802326218437604e+06  -5.2583113628289727e+06  -5.5209069590629358e+05  -6.5347788576884642e+06  1.9991667621290942e+06  -6.1232880550597971e+06  3.3635685040713758e+06  -7.7263067193102827e+06  5.4382118640588690e+06  -5.7588487864266532e+06  4.5559194686861895e+06  -6.1168792366088796e+06  5.2324435928472634e+06  -4.6047173818063717e+06  5.8549149203686947e+06  -7.3725680115964962e+06  6.1217140006134994e+06  -5.2422285978998533e+06  3.9997126708880691e+06  -5.5788635333431382e+06  2.1143534832413588e+06  -3.2917467488887962e+06  -9.4619794846207020e+05  -1.9770347471857057e+06  -5.0734681902131652e+06  -1.8898552490838643e+06  4.0148937658644701e-01  8.2298557378547960e-09  1.5833668249859437e+07  -8.3037008286091741e+06  1.5997701278978184e+07  -4.8880241591759790e+06  1.2414898990112759e+07  -5.2270626171753453e+06  1.2578522679448299e+07  -6.8335601377521334e+06  1.2139601670631468e+07  -9.0266291234688982e+06  1.2718163806125615e+07  -7.7269318893449623e+06  7.0577216274560792e+06  -4.9591973711737581e+06  6.0928835560271982e+06  -5.2914422599995397e+06  6.4933526610209746e+06  -7.3725679805062618e+06  6.7727050121257883e+06  -5.1119692911510281e+06  5.3710148048826382e+06  -5.5837246902906252e+06  6.6743051935761441e+06  -4.3488196018784009e+06  7.1497994148142198e+06  -5.8891266496474184e+06  1.1063723388854330e+07  -8.2454726605552547e+06  1.1033712502853980e+07  2.8347829680758929e-01  0.0000000000000000e+00  -4.2783850744865779e+06  -7.9502276412982121e+06  -5.1378669311441248e+06  -2.8738649014478461e+06  -8.6136867596146446e+06  1.8766647508532247e+06  -1.0270535936439930e+07  3.3838521631970122e+06  -9.5546827455712296e+06  5.3906012937300457e+06  -9.0270590228105523e+06  3.3641103490089849e+06  -3.9126424149400378e+06  2.8397996114172707e+06  -5.5785447194686178e+06  5.3963069608334927e+06  -6.9832681761047449e+06  6.1217139643502142e+06  -5.1119692866866747e+06  4.7476845849360758e+06  -5.5291092717745574e+06  4.9538126461046273e+06  -4.2784190448065456e+06  2.1379822725185780e+06  -3.9743002259777905e+06  8.1812093621724204e+05  -1.2065471884165164e+06  -6.1482921312563848e+06  1.3519761665584426e+05  1.9361949102355669e-01  0.0000000000000000e+00  1.9104862276139051e+07  -1.0640552640297646e+07  1.9810256316445716e+07  -8.8586941775479428e+06  2.1061087878830615e+07  -1.2724559861784108e+07  2.1367098264195338e+07  -1.2233803662412649e+07  1.7314611590488676e+07  -9.5549589965660330e+06  1.2139965140864516e+07  -6.1233583086517751e+06  7.6345984244735930e+06  -6.1070211440411396e+06  8.6271768976084068e+06  -6.6636432479322068e+06  7.2767222928620372e+06  -5.2422285412908038e+06  5.3710147880781749e+06  -5.5291092539708354e+06  5.5271569657322941e+06  -4.4103131074453918e+06  4.2276395736223096e+06  -4.2169671952103581e+06  6.4978677151487470e+06  -4.6542846780720465e+06  8.0969094577352051e+06  -8.1097968984817425e+06  1.1170823101113323e+07  1.2703383476655752e-01  0.0000000000000000e+00  -5.3481067444180325e+06  -6.5413827302006679e+06  -1.0928121386550523e+07  1.8699855185699544e+06  -1.4736096007979358e+07  3.7098310543849114e+06  -1.3571596022648957e+07  4.7851349533332810e+06  -1.2233970410559831e+07  3.3840808988574333e+06  -6.8336126039942121e+06  1.9989285196825091e+06  -5.1275113803093228e+06  3.0133830402286355e+06  -5.9595993513682550e+06  3.4190961541015999e+06  -5.3696415038009416e+06  3.9997126124367178e+06  -5.5837246771989716e+06  4.9538126176976236e+06  -4.4103131042573657e+06  3.6754537563029965e+06  -4.0388566173706511e+06  3.9828791466222275e+06  -4.0680294520588783e+06  9.1994638305777812e+05  -8.0467372282093519e+05  -6.1740951599428710e+06  2.0471705662088604e+06  7.9306543523248840e-02  2.2058050483544975e-08  3.0686785581985857e+07  -2.1469648816539660e+07  3.3122244337772898e+07  -2.1701156973880656e+07  3.4939207765703358e+07  -1.9195570727731857e+07  2.6435568310768526e+07  -1.3571692585748987e+07  2.1367234713466991e+07  -1.0270573188089771e+07  1.2578381662421487e+07  -6.5345728180980459e+06  9.5849914486737140e+06  -5.6331856558089284e+06  8.9455894933422133e+06  -5.5240528261554232e+06  8.2489268066837387e+06  -5.5788634047080409e+06  6.6743051624519546e+06  -4.2784189950721115e+06  4.2276395683520883e+06  -4.0388566061240877e+06  4.5414669668723783e+06  -4.2465072283007409e+06  3.7786299554921645e+06  -2.0690569484457322e+06  5.1671513828393845e+06  -8.6736236210937724e+06  1.2110179032961281e+07  4.6488039794755909e-02  0.0000000000000000e+00  -1.2765734681855982e+07  -1.8895351672575742e+06  -1.9544508688393954e+07  5.9054896873984989e+06  -2.1405974192645568e+07  7.9057546355536850e+06  -1.9195623537858389e+07  3.7099088848979473e+06  -1.2724584064361915e+07  1.8765867248837433e+06  -5.2269406531042838e+06  -5.5212352093125694e+05  -4.7365856797643863e+06  7.6868148439188243e+05  -6.1794483809638917e+06  2.2238639659273303e+06  -6.0246625984476293e+06  2.1143533946515229e+06  -4.3488196337420437e+06  2.1379822346748444e+06  -4.2169672031003814e+06  3.9828791221249113e+06  -4.2465072244225880e+06  3.1306572504233285e+06  -1.9459008355372993e+06  1.8804371949383935e+06  -3.7688778265557429e+06  -4.7292521036300836e+06  5.0374018038644046e+06  2.5093086036652907e-02  0.0000000000000000e+00  5.9085726290715225e+07  -3.8305324305978350e+07  5.0159974545292005e+07  -3.1922896225535855e+07  4.2016708669253215e+07  -2.1406002749055613e+07  3.4939250394597314e+07  -1.4736111913108855e+07  2.1061047519259162e+07  -8.6136198306812588e+06  1.2414878375246689e+07  -5.2583750878886348e+06  1.1801827081874335e+07  -5.7264301453964803e+06  1.1482908438161962e+07  -4.7705560556817502e+06  8.9787865835205633e+06  -3.2917465940286624e+06  7.1497994118603561e+06  -3.9743001151867919e+06  6.4978676960814428e+06  -4.0680293956413511e+06  3.7786299529638500e+06  -1.9459008283002838e+06  2.6227057774501923e+06  -3.2966156362343985e+06  1.5763670184398047e+06  -6.2199182605343964e+06  1.3057277710853035e+07  1.2101218188972276e-02  0.0000000000000000e+00  -2.6330082044028096e+07  6.5508154960946573e+04  -3.4297704579958893e+07  1.4486899369344054e+07  -3.1922910062130693e+07  5.9055121407372151e+