<?xml version="1.0"?>
<VTKFile type="UnstructuredGrid"  version="0.1"  >
<UnstructuredGrid>
<Piece  NumberOfPoints="961" NumberOfCells="1800">
<Points>
<DataArray  type="Float64"  NumberOfComponents="3"  format="ascii">-1 -1 0  -0.9333333333333333 -1 0  -0.8666666666666667 -1 0  -0.8 -1 0  -0.7333333333333334 -1 0  -0.6666666666666667 -1 0  -0.6 -1 0  -0.5333333333333333 -1 0  -0.4666666666666667 -1 0  -0.4 -1 0  -0.3333333333333334 -1 0  -0.2666666666666667 -1 0  -0.2 -1 0  -0.1333333333333333 -1 0  -0.06666666666666665 -1 0  0 -1 0  0.06666666666666665 -1 0  0.1333333333333333 -1 0  0.2 -1 0  0.2666666666666666 -1 0  0.3333333333333333 -1 0  0.3999999999999999 -1 0  0.4666666666666666 -1 0  0.5333333333333334 -1 0  0.6000000000000001 -1 0  0.6666666666666667 -1 0  0.7333333333333334 -1 0  0.8 -1 0  0.8666666666666667 -1 0  0.9333333333333333 -1 0  1 -1 0  -1 -0.9333333333333333 0  -0.9333333333333333 -0.9333333333333333 0  -0.8666666666666667 -0.9333333333333333 0  -0.8 -0.9333333333333333 0  -0.7333333333333334 -0.9333333333333333 0  -0.6666666666666667 -0.9333333333333333 0  -0.6 -0.9333333333333333 0  -0.5333333333333333 -0.9333333333333333 0  -0.4666666666666667 -0.9333333333333333 0  -0.4 -0.9333333333333333 0  -0.3333333333333334 -0.9333333333333333 0  -0.2666666666666667 -0.9333333333333333 0  -0.2 -0.9333333333333333 0  -0.1333333333333333 -0.9333333333333333 0  -0.06666666666666665 -0.9333333333333333 0  0 -0.9333333333333333 0  0.06666666666666665 -0.9333333333333333 0  0.1333333333333333 -0.9333333333333333 0  0.2 -0.9333333333333333 0  0.2666666666666666 -0.9333333333333333 0  0.3333333333333333 -0.9333333333333333 0  0.3999999999999999 -0.9333333333333333 0  0.4666666666666666 -0.9333333333333333 0  0.5333333333333334 -0.9333333333333333 0  0.6000000000000001 -0.9333333333333333 0  0.6666666666666667 -0.9333333333333333 0  0.7333333333333334 -0.9333333333333333 0  0.8 -0.9333333333333333 0  0.8666666666666667 -0.9333333333333333 0  0.9333333333333333 -0.9333333333333333 0  1 -0.9333333333333333 0  -1 -0.8666666666666667 0  -0.9333333333333333 -0.8666666666666667 0  -0.8666666666666667 -0.8666666666666667 0  -0.8 -0.8666666666666667 0  -0.7333333333333334 -0.8666666666666667 0  -0.6666666666666667 -0.8666666666666667 0  -0.6 -0.8666666666666667 0  -0.5333333333333333 -0.8666666666666667 0  -0.4666666666666667 -0.8666666666666667 0  -0.4 -0.8666666666666667 0  -0.3333333333333334 -0.8666666666666667 0  -0.2666666666666667 -0.8666666666666667 0  -0.2 -0.8666666666666667 0  -0.1333333333333333 -0.8666666666666667 0  -0.06666666666666665 -0.8666666666666667 0  0 -0.8666666666666667 0  0.06666666666666665 -0.8666666666666667 0  0.1333333333333333 -0.8666666666666667 0  0.2 -0.8666666666666667 0  0.2666666666666666 -0.8666666666666667 0  0.3333333333333333 -0.8666666666666667 0  0.3999999999999999 -0.8666666666666667 0  0.4666666666666666 -0.8666666666666667 0  0.5333333333333334 -0.8666666666666667 0  0.6000000000000001 -0.8666666666666667 0  0.6666666666666667 -0.8666666666666667 0  0.7333333333333334 -0.8666666666666667 0  0.8 -0.8666666666666667 0  0.8666666666666667 -0.8666666666666667 0  0.9333333333333333 -0.8666666666666667 0  1 -0.8666666666666667 0  -1 -0.8 0  -0.9333333333333333 -0.8 0  -0.8666666666666667 -0.8 0  -0.8 -0.8 0  -0.7333333333333334 -0.8 0  -0.6666666666666667 -0.8 0  -0.6 -0.8 0  -0.5333333333333333 -0.8 0  -0.4666666666666667 -0.8 0  -0.4 -0.8 0  -0.3333333333333334 -0.8 0  -0.2666666666666667 -0.8 0  -0.2 -0.8 0  -0.1333333333333333 -0.8 0  -0.06666666666666665 -0.8 0  0 -0.8 0  0.06666666666666665 -0.8 0  0.1333333333333333 -0.8 0  0.2 -0.8 0  0.2666666666666666 -0.8 0  0.3333333333333333 -0.8 0  0.3999999999999999 -0.8 0  0.4666666666666666 -0.8 0  0.5333333333333334 -0.8 0  0.6000000000000001 -0.8 0  0.6666666666666667 -0.8 0  0.7333333333333334 -0.8 0  0.8 -0.8 0  0.8666666666666667 -0.8 0  0.9333333333333333 -0.8 0  1 -0.8 0  -1 -0.7333333333333334 0  -0.9333333333333333 -0.7333333333333334 0  -0.8666666666666667 -0.7333333333333334 0  -0.8 -0.7333333333333334 0  -0.7333333333333334 -0.7333333333333334 0  -0.6666666666666667 -0.7333333333333334 0  -0.6 -0.7333333333333334 0  -0.5333333333333333 -0.7333333333333334 0  -0.4666666666666667 -0.7333333333333334 0  -0.4 -0.7333333333333334 0  -0.3333333333333334 -0.7333333333333334 0  -0.2666666666666667 -0.7333333333333334 0  -0.2 -0.7333333333333334 0  -0.1333333333333333 -0.7333333333333334 0  -0.06666666666666665 -0.7333333333333334 0  0 -0.7333333333333334 0  0.06666666666666665 -0.7333333333333334 0  0.1333333333333333 -0.7333333333333334 0  0.2 -0.7333333333333334 0  0.2666666666666666 -0.7333333333333334 0  0.3333333333333333 -0.7333333333333334 0  0.3999999999999999 -0.7333333333333334 0  0.4666666666666666 -0.7333333333333334 0  0.5333333333333334 -0.7333333333333334 0  0.6000000000000001 -0.7333333333333334 0  0.6666666666666667 -0.7333333333333334 0  0.7333333333333334 -0.7333333333333334 0  0.8 -0.7333333333333334 0  0.8666666666666667 -0.7333333333333334 0  0.9333333333333333 -0.7333333333333334 0  1 -0.7333333333333334 0  -1 -0.6666666666666667 0  -0.9333333333333333 -0.6666666666666667 0  -0.8666666666666667 -0.6666666666666667 0  -0.8 -0.6666666666666667 0  -0.7333333333333334 -0.6666666666666667 0  -0.6666666666666667 -0.6666666666666667 0  -0.6 -0.6666666666666667 0  -0.5333333333333333 -0.6666666666666667 0  -0.4666666666666667 -0.6666666666666667 0  -0.4 -0.6666666666666667 0  -0.3333333333333334 -0.6666666666666667 0  -0.2666666666666667 -0.6666666666666667 0  -0.2 -0.6666666666666667 0  -0.1333333333333333 -0.6666666666666667 0  -0.06666666666666665 -0.6666666666666667 0  0 -0.6666666666666667 0  0.06666666666666665 -0.6666666666666667 0  0.1333333333333333 -0.6666666666666667 0  0.2 -0.6666666666666667 0  0.2666666666666666 -0.6666666666666667 0  0.3333333333333333 -0.6666666666666667 0  0.3999999999999999 -0.6666666666666667 0  0.4666666666666666 -0.6666666666666667 0  0.5333333333333334 -0.6666666666666667 0  0.6000000000000001 -0.6666666666666667 0  0.6666666666666667 -0.6666666666666667 0  0.7333333333333334 -0.6666666666666667 0  0.8 -0.6666666666666667 0  0.8666666666666667 -0.6666666666666667 0  0.9333333333333333 -0.6666666666666667 0  1 -0.6666666666666667 0  -1 -0.6 0  -0.9333333333333333 -0.6 0  -0.8666666666666667 -0.6 0  -0.8 -0.6 0  -0.7333333333333334 -0.6 0  -0.6666666666666667 -0.6 0  -0.6 -0.6 0  -0.5333333333333333 -0.6 0  -0.4666666666666667 -0.6 0  -0.4 -0.6 0  -0.3333333333333334 -0.6 0  -0.2666666666666667 -0.6 0  -0.2 -0.6 0  -0.1333333333333333 -0.6 0  -0.06666666666666665 -0.6 0  0 -0.6 0  0.06666666666666665 -0.6 0  0.1333333333333333 -0.6 0  0.2 -0.6 0  0.2666666666666666 -0.6 0  0.3333333333333333 -0.6 0  0.3999999999999999 -0.6 0  0.4666666666666666 -0.6 0  0.5333333333333334 -0.6 0  0.6000000000000001 -0.6 0  0.6666666666666667 -0.6 0  0.7333333333333334 -0.6 0  0.8 -0.6 0  0.8666666666666667 -0.6 0  0.9333333333333333 -0.6 0  1 -0.6 0  -1 -0.5333333333333333 0  -0.9333333333333333 -0.5333333333333333 0  -0.8666666666666667 -0.5333333333333333 0  -0.8 -0.5333333333333333 0  -0.7333333333333334 -0.5333333333333333 0  -0.6666666666666667 -0.5333333333333333 0  -0.6 -0.5333333333333333 0  -0.5333333333333333 -0.5333333333333333 0  -0.4666666666666667 -0.5333333333333333 0  -0.4 -0.5333333333333333 0  -0.3333333333333334 -0.5333333333333333 0  -0.2666666666666667 -0.5333333333333333 0  -0.2 -0.5333333333333333 0  -0.1333333333333333 -0.5333333333333333 0  -0.06666666666666665 -0.5333333333333333 0  0 -0.5333333333333333 0  0.06666666666666665 -0.5333333333333333 0  0.1333333333333333 -0.5333333333333333 0  0.2 -0.5333333333333333 0  0.2666666666666666 -0.5333333333333333 0  0.3333333333333333 -0.5333333333333333 0  0.3999999999999999 -0.5333333333333333 0  0.4666666666666666 -0.5333333333333333 0  0.5333333333333334 -0.5333333333333333 0  0.6000000000000001 -0.5333333333333333 0  0.6666666666666667 -0.5333333333333333 0  0.7333333333333334 -0.5333333333333333 0  0.8 -0.5333333333333333 0  0.8666666666666667 -0.5333333333333333 0  0.9333333333333333 -0.5333333333333333 0  1 -0.5333333333333333 0  -1 -0.4666666666666667 0  -0.9333333333333333 -0.4666666666666667 0  -0.8666666666666667 -0.4666666666666667 0  -0.8 -0.4666666666666667 0  -0.7333333333333334 -0.4666666666666667 0  -0.6666666666666667 -0.4666666666666667 0  -0.6 -0.4666666666666667 0  -0.5333333333333333 -0.4666666666666667 0  -0.4666666666666667 -0.4666666666666667 0  -0.4 -0.4666666666666667 0  -0.3333333333333334 -0.4666666666666667 0  -0.2666666666666667 -0.4666666666666667 0  -0.2 -0.4666666666666667 0  -0.1333333333333333 -0.4666666666666667 0  -0.06666666666666665 -0.4666666666666667 0  0 -0.4666666666666667 0  0.06666666666666665 -0.4666666666666667 0  0.1333333333333333 -0.4666666666666667 0  0.2 -0.4666666666666667 0  0.2666666666666666 -0.4666666666666667 0  0.3333333333333333 -0.4666666666666667 0  0.3999999999999999 -0.4666666666666667 0  0.4666666666666666 -0.4666666666666667 0  0.5333333333333334 -0.4666666666666667 0  0.6000000000000001 -0.4666666666666667 0  0.6666666666666667 -0.4666666666666667 0  0.7333333333333334 -0.4666666666666667 0  0.8 -0.4666666666666667 0  0.8666666666666667 -0.4666666666666667 0  0.9333333333333333 -0.4666666666666667 0  1 -0.4666666666666667 0  -1 -0.4 0  -0.9333333333333333 -0.4 0  -0.8666666666666667 -0.4 0  -0.8 -0.4 0  -0.7333333333333334 -0.4 0  -0.6666666666666667 -0.4 0  -0.6 -0.4 0  -0.5333333333333333 -0.4 0  -0.4666666666666667 -0.4 0  -0.4 -0.4 0  -0.3333333333333334 -0.4 0  -0.2666666666666667 -0.4 0  -0.2 -0.4 0  -0.1333333333333333 -0.4 0  -0.06666666666666665 -0.4 0  0 -0.4 0  0.06666666666666665 -0.4 0  0.1333333333333333 -0.4 0  0.2 -0.4 0  0.2666666666666666 -0.4 0  0.3333333333333333 -0.4 0  0.3999999999999999 -0.4 0  0.4666666666666666 -0.4 0  0.5333333333333334 -0.4 0  0.6000000000000001 -0.4 0  0.6666666666666667 -0.4 0  0.7333333333333334 -0.4 0 
[...]
<PointData  Scalars="f_24"> 
<DataArray  type="Float64"  Name="f_24"  format="ascii">0.0000000000000000e+00  0.0000000000000000e+00  0.0000000000000000e+00  0.0000000000000000e+00  0.0000000000000000e+00  0.0000000000000000e+00  0.0000000000000000e+00  0.0000000000000000e+00  0.0000000000000000e+00  0.0000000000000000e+00  0.0000000000000000e+00  0.0000000000000000e+00  0.0000000000000000e+00  0.0000000000000000e+00  0.0000000000000000e+00  0.0000000000000000e+00  0.0000000000000000e+00  0.0000000000000000e+00  0.0000000000000000e+00  0.0000000000000000e+00  0.0000000000000000e+00  0.0000000000000000e+00  0.0000000000000000e+00  0.0000000000000000e+00  0.0000000000000000e+00  -6.2984903955533298e-08  0.0000000000000000e+00  0.0000000000000000e+00  0.0000000000000000e+00  0.0000000000000000e+00  1.2712537640053345e+01  0.0000000000000000e+00  1.1595872838820079e+07  1.2661399415262403e+07  1.8425691418547388e+07  1.3261801915909391e+07  1.8170794527751725e+07  1.0351405533545315e+07  1.7270667329063151e+07  7.3262153441887153e+06  1.6143567166383632e+07  5.2216727489544600e+06  1.5740504906859171e+07  3.1208781553354161e+06  1.6397908694460118e+07  1.5513200904977166e+06  1.7145728931004688e+07  1.0040028510314572e+06  1.8231161766429499e+07  9.5189459177158121e+05  1.9988028917203348e+07  1.6435157353625360e+06  2.3257500261930063e+07  9.9488707023451978e+05  3.4098036957134612e+07  -5.5430098420412466e+06  5.9566717587036714e+07  -1.8004807694095798e+07  9.8768532384827659e+07  -1.1062243864911934e+07  2.1488550224993435e+08  1.1100415227894530e+01  0.0000000000000000e+00  1.2661399395174693e+07  1.3907193172798714e+07  5.5670100563102039e+06  2.4494547707747207e+06  -3.8168237021014770e+06  -3.5113828858387317e+06  -8.2880569873592583e+06  -6.6625353907120954e+06  -9.1741778754378967e+06  -7.7352395740662608e+06  -1.0052539334944099e+07  -7.3668883069064999e+06  -1.0402282625041712e+07  -7.8762816272076592e+06  -9.8337228289236352e+06  -8.6259992842281796e+06  -9.9599814667269308e+06  -8.9956695209639482e+06  -1.0126498604820909e+07  -9.7134263354699705e+06  -1.1586986199076196e+07  -7.2126250245124204e+06  -1.9969455324092258e+07  -1.1846050950975632e+06  -3.2508706061901849e+07  2.9995374079559222e+06  -2.8104097599427667e+07  -1.7328890155296687e+07  -1.1062251867147448e+07  9.6467130055617254e+00  2.2670906847357116e-09  1.8425691409890473e+07  5.5670100598164862e+06  1.9768095119577502e+06  -4.5082014874772523e+06  1.3126789314930332e+06  -4.6226022105412064e+06  3.8229741313348021e+06  -2.1298415365496115e+06  6.7546934212886896e+06  -2.1346496717682392e+06  9.9177157533894964e+06  -2.4409373168528923e+06  1.1091962620800393e+07  -2.1562043776082164e+06  1.2158092818047581e+07  -3.2603495198347853e+06  1.4002538162528243e+07  -4.3603211904712999e+06  1.4508711619529216e+07  -5.3946486520392001e+06  1.7545455166308559e+07  -1.1079047210612202e+07  2.9253039078581572e+07  -1.8439202986985505e+07  4.5212503677182637e+07  -2.9745514555273905e+07  5.4098503981481083e+07  -2.8104097049061272e+07  9.8768533939301386e+07  8.3406958922347521e+00  0.0000000000000000e+00  1.3261801853572777e+07  2.4494547901665424e+06  -4.5082014933124799e+06  5.4130099252154888e+05  -4.5332732053443128e+06  4.3596103919993143e+05  -3.3276402900300310e+06  -1.4346849414986972e+05  -5.3469231169409845e+06  -7.2182429051606450e+04  -6.3166301063689645e+06  -1.7018408281192612e+06  -5.9593089708374478e+06  -2.5484588329680804e+06  -6.7922366862567738e+06  -2.2994277869718694e+06  -6.8810144420071347e+06  -3.6768287119839410e+06  -5.3275743551311670e+06  -3.8056922304657390e+06  -9.0445448923047967e+06  3.1482350047807000e+05  -2.1056398134007145e+07  3.2710410823735669e+06  -3.0252556502236467e+07  1.1837494546139281e+07  -2.9745522974172156e+07  2.9995430899879080e+06  -1.8004814393631026e+07  7.1720056797543430e+00  -1.7938570376632070e-09  1.8170794510057881e+07  -3.8168236652196292e+06  1.3126789379129270e+06  -4.5332732090112409e+06  1.3001361751032439e+06  -2.9442449773199335e+06  3.0563666865954539e+06  -4.3368965623756303e+06  5.9838415619611880e+06  -3.9573631585627445e+06  6.8365524241421483e+06  -3.1749158745267200e+06  8.6812202906948235e+06  -4.3786337743599145e+06  1.1001929740866289e+07  -5.1366184435125282e+06  1.1270886902638003e+07  -4.7909449687646991e+06  1.1755613542969143e+07  -8.1328051501059616e+06  1.9415797561990179e+07  -1.3821456988176199e+07  3.1782587079708409e+07  -2.0069526030254327e+07  3.7115118426464468e+07  -3.0252566672257613e+07  4.5212513256761648e+07  -3.2508707098680116e+07  5.9566717055892222e+07  6.1306605131430105e+00  0.0000000000000000e+00  1.0351405442895748e+07  -3.5113828306257799e+06  -4.6226022623035004e+06  4.3596105069971347e+05  -2.9442449820581544e+06  2.4251416305344230e+06  -4.4820376428486556e+06  3.4932017573470599e+06  -4.2584883894436574e+06  1.8303896587644536e+06  -4.3375772165786251e+06  1.7530235613988244e+06  -5.8288955461573442e+06  1.6751254216746313e+06  -5.8843333379144743e+06  1.8622546687460507e+05  -4.5436336630034139e+06  -1.0424695338190033e+06  -4.9605297417318905e+06  1.1948705808317242e+06  -1.1841832040817818e+07  2.4530418483871846e+06  -1.7983292320464227e+07  5.9051742662719507e+06  -2.0069550396709010e+07  3.2710599103594301e+06  -1.8439210157827366e+07  -1.1846059079558623e+06  -5.5430121221450614e+06  5.2070554173658508e+00  -6.2382127090859422e-09  1.7270667319582622e+07  -8.2880569328395706e+06  3.8229741261667623e+06  -3.3276402692963877e+06  3.0563666911154324e+06  -4.4820376479262542e+06  4.1333149987978265e+06  -3.9935712509650220e+06  4.0467198270770875e+06  -4.0910711632482372e+06  6.4388688494983399e+06  -5.1793334660618417e+06  7.9018184014371084e+06  -4.9891551359223165e+06  8.5555026668452807e+06  -5.0557488124542208e+06  9.2119510938053839e+06  -5.9690581422250895e+06  1.1921415279909072e+07  -9.5129596191135049e+06  2.0003193006001908e+07  -1.2410506016033648e+07  2.4441946523432098e+07  -1.7983334647033013e+07  3.1782621965510208e+07  -2.1056405157572232e+07  2.9253032867831465e+07  -1.9969448601249825e+07  3.4098035873731375e+07  4.3919620317656385e+00  0.0000000000000000e+00  7.3262152243498182e+06  -6.6625353127124868e+06  -2.1298416217139978e+06  -1.4346846340906250e+05  -4.3368966089325864e+06  3.4932017771871807e+06  -3.9935712593222139e+06  3.4603841391143976e+06  -4.2531746040662285e+06  4.6518397485588966e+06  -5.3078992140919305e+06  3.6127991662865914e+06  -5.0326717519431002e+06  2.9169214718977069e+06  -5.5610606543900976e+06  2.4699205072131911e+06  -4.7866374598648939e+06  1.5240610757084985e+06  -6.2364847260530861e+06  2.7330767637220868e+06  -1.1290751912873203e+07  3.7456322399809263e+06  -1.2410584901624626e+07  2.4531052778496505e+06  -1.3821471011664791e+07  3.1480856940554723e+05  -1.1079035830036597e+07  -7.2126263036245126e+06  9.9488244373640593e+05  3.6765286634670837e+00  2.7032811315114726e-08  1.6143567167017471e+07  -9.1741777958226930e+06  6.7546934033644097e+06  -5.3469230873570619e+06  5.9838415826923419e+06  -4.2584883854069114e+06  4.0467198334193416e+06  -4.2531746085039852e+06  5.2719773842870425e+06  -5.2167329748321902e+06  5.0855530864014626e+06  -4.8209078017307026e+06  6.8377863545576967e+06  -6.0769197973989360e+06  8.1512849826045902e+06  -5.5550250095438184e+06  7.2758592134496188e+06  -5.6345622997542424e+06  1.1408527596035007e+07  -8.7730129001227207e+06  1.6346616022287900e+07  -1.1290886766195023e+07  2.0003303767630499e+07  -1.1841851492164906e+07  1.9415765150663503e+07  -9.0445162306012362e+06  1.7545450405210551e+07  -1.1586990797679460e+07  2.3257503294087872e+07  3.0522803477940141e+00  0.0000000000000000e+00  5.2216726052601077e+06  -7.7352394804232605e+06  -2.1346498105231505e+06  -7.2182350546695554e+04  -3.9573632504623816e+06  1.8303896890619516e+06  -4.0910712046785150e+06  4.6518397721699085e+06  -5.2167329888221035e+06  4.4273512231347524e+06  -4.7448152468528599e+06  5.5923123651747247e+06  -6.4709285138798067e+06  4.8479221238498818e+06  -5.1817998864647988e+06  2.4060386682072151e+06  -3.6065565326059973e+06  2.9050122725927918e+06  -8.2770166274499660e+06  4.6230929128116099e+06  -8.7732371580825262e+06  2.7332623729357156e+06  -9.5129905343349818e+06  1.1948078819967264e+06  -8.1327519426338961e+06  -3.8057010923908968e+06  -5.3946632122987993e+06  -9.7134163581138309e+06  1.6435126919286251e+06  2.5111185461833778e+00  0.0000000000000000e+00  1.5740504921526529e+07  -1.0052539249123296e+07  9.9177157546057031e+06  -6.3166300678156661e+06  6.8365524338700166e+06  -4.3375771938121105e+06  6.4388688797354242e+06  -5.3078992276597973e+06  5.0855531021810630e+06  -4.7448152523154579e+06  6.2816892738755299e+06  -6.8012007468346208e+06  6.0408224070859868e+06  -4.8313628626399664e+06  5.7132804496003818e+06  -4.4951559097856414e+06  6.6302390536433160e+06  -7.1536150347814737e+06  1.1931291528868655e+07  -8.2773649762834795e+06  1.1408822370621081e+07  -6.2365272821669392e+06  1.1921301341365376e+07  -4.9604309462577831e+06  1.1755597159442181e+07  -5.3276008268417334e+06  1.4508731841858614e+07  -1.0126499737327887e+07  1.9988025498157438e+07  2.0453217503572736e+00  0.0000000000000000e+00  3.1208779689722788e+06  -7.3668881759689683e+06  -2.4409375162941981e+06  -1.7018407271814153e+06  -3.1749160029185209e+06  1.7530236338690692e+06  -5.1793335742847538e+06  3.6127992146076132e+06  -4.8209078489509877e+06  5.5923123955377610e+06  -6.8012007719678460e+06  5.3640370052078664e+06  -4.2235208797867149e+06  4.7424466636278341e+06  -5.6541578242295897e+06  4.0560067853631610e+06  -5.2972319163478324e+06  4.9141463462135810e+06  -7.1541221439146828e+06  2.9054517823683587e+06  -5.6346198401884818e+06  1.5238685011666610e+06  -5.9688919553354047e+06  -1.0424955490808454e+06  -4.7909975152627649e+06  -3.6767886444623666e+06  -4.3603257200132152e+06  -8.9956788710472006e+06  9.5189737678975926e+05  1.6475448781509134e+00  -2.7582719017481431e-06  1.6397908741103332e+07  -1.0402282536025757e+07  1.1091962625588607e+07  -5.9593089028390963e+06  8.6812203127756678e+06  -5.8288955401435019e+06  7.9018184540061438e+06  -5.0326717537029209e+06  6.8377864021295356e+06  -6.4709285555264428e+06  6.0408224473628737e+06  -4.2235208888606997e+06  5.4062867563458197e+06  -7.0964424188381638e+06  6.1207951254991386e+06  -3.6753049944412815e+06  5.2119351584315514e+06  -5.2979109478691807e+06  6.6308472110168049e+06  -3.6066265128134782e+06  7.2755570038243588e+06  -4.7863735052608410e+06  9.2119131941728704e+06  -4.5437258546072142e+06  1.1270958821664220e+07  -6.8810194913221067e+06  1.4002516225628210e+07  -9.9599689846487064e+06  1.8231162117227957e+07  1.3108195755986363e+00  0.0000000000000000e+00  1.5513198414038820e+06  -7.8762814682229999e+06  -2.1562046263077566e+06  -2.5484586958638364e+06  -4.3786339894848149e+06  1.6751255568566367e+06  -4.9891553013523333e+06  2.9169215644253846e+06  -6.0769199387401417e+06  4.8479222136945473e+06  -4.8313629311143020e+06  4.7424466993064582e+06  -7.0964424647543821e+06  6.0957998029136062e+06  -2.2289998974213302e+06  6.8582797410387266e+05  -3.6761361647836580e+06  4.0567802563882349e+06  -4.4952361655214839e+06  2.4056034724722565e+06  -5.5546401567753451e+06  2.4698716400078465e+06  -5.0559037982513998e+06  1.8634656602601701e+05  -5.1366270735733742e+06  -2.2994695891272202e+06  -3.2603260019974844e+06  -8.6259970045346152e+06  1.0039954553668073e+06  1.0285541565167111e+00  -3.7488288532471349e-09  1.7145729009559423e+07  -9.8337227120244801e+06  1.2158092836057354e+07  -6.7922366288339803e+06  1.1001929815401077e+07  -5.8843333407427678e+06  8.5555027447010502e+06  -5.5610606918970495e+06  8.1512851009015786e+06  -5.1817999458561009e+06  5.7132805371971950e+06  -5.6541579248370184e+06  6.1207952574998345e+06  -2.2289999530825964e+06  -2.2792678422698949e+05  -2.2299210027689971e+06  6.1216918040671395e+06  -5.6542431664684797e+06  5.7127105337405773e+06  -5.1812834775043577e+06  8.1512283609554609e+06  -5.5612978302517775e+06  8.5556899219344389e+06  -5.8843421825920520e+06  1.1001855505365025e+07  -6.7921917609495437e+06  1.2158097139706424e+07  -9.8337388540487774e+06  1.7145734420056567e+07  7.9453360250333405e-01  0.0000000000000000e+00  1.0040025216530958e+06  -8.6259990828267019e+06  -3.2603498764774827e+06  -2.2994275593601470e+06  -5.1366187695420776e+06  1.8622566346759087e+05  -5.0557490839132713e+06  2.4699207120797466e+06  -5.5550252751260754e+06  2.4060388431568411e+06  -4.4951561367948428e+06  4.0560069898326071e+06  -3.6753051554400809e+06  6.8582797406868136e+05  -2.2299209470900833e+06  6.0967422685948266e+06  -7.0965298539057560e+06  4.7417740280072158e+06  -4.8307328387580831e+06  4.8478628044501068e+06  -6.0772520148481596e+06  2.9171869327114760e+06  -4.9891627789353775e+06  1.6750054195943596e+06  -4.3785608488809885e+06  -2.5484495788115524e+06  -2.1562380031924308e+06  -7.8762680509028835e+06  1.5513216808018100e+06  6.0291956293862881e-01  -1.5406718191165367e-08  1.8231161890001677e+07  -9.9599813396895025e+06  1.4002538249361796e+07  -6.8810144155566962e+06  1.1270887031356405e+07  -4.5436336933259061e+06  9.2119512695973814e+06  -4.7866375785347251e+06  7.2758594110349892e+06  -3.6065566418820652e+06  6.6302392367290575e+06  -5.2972320103831813e+06  5.2119351583524654e+06  -3.6761360036856225e+06  6.1216916720768651e+06  -7.0965298079906907e+06  5.4055753998532780e+06  -4.2228237157413801e+06  6.0407637592055993e+06  -6.4713462229795931e+06  6.8381281891200216e+06  -5.0326727959298901e+06  7.9016408316468038e+06  -5.8287849991017133e+06  8.6812368310249634e+06  -5.9593653422610108e+06  1.1091986422337143e+07  -1.0402274547648909e+07  1.6397899877501929e+07  4.4825034484732362e-01  0.0000000000000000e+00  9.5189411489126435e+05  -8.9956692100555506e+06  -4.3603217235679133e+06  -3.6768283843418011e+06  -4.7909454244430875e+06  -1.0424692321556767e+06  -5.9690585657357723e+06  1.5240613525732663e+06  -5.6345626048536329e+06  2.9050124259608975e+06  -7.1536152176788189e+06  4.9141463461645367e+06  -5.2979108536809590e+06  4.0567800517935674e+06  -5.6542430659187138e+06  4.7417739923107093e+06  -4.2228237066708580e+06  5.3639791512897369e+06  -6.8016704530993244e+06  5.5927108705028528e+06  -4.8209008330436703e+06  3.6125624347781488e+06  -5.1791838945950167e+06  1.7530514974685025e+06  -3.1750046282226630e+06  -1.7018025641046937e+06  -2.4409224443994425e+06  -7.3669092725552805e+06  3.1208822154336632e+06  3.2544096358536567e-01  4.1149278689273980e-09  1.9988029127572574e+07  -1.0126498465283509e+07  1.4508711766031390e+07  -5.3275743099623285e+06  1.1755613714056361e+07  -4.9605297765637022e+06  1.1921415469888262e+07  -6.2364847398787662e+06  1.1408527673911497e+07  -8.2770165650888402e+06  1.1931291528742755e+07  -7.1541219609719729e+06  6.6308470278605390e+06  -4.4952359383460768e+06  5.7127104462768538e+06  -4.8307327702204874e+06  6.0407637189598391e+06  -6.8016704279625621e+06  6.2821087447939059e+06  -4.7448019378634244e+06  5.0852706302094134e+06  -5.3077152365626562e+06  6.4389099650400169e+06  -4.3377009990758179e+06  6.8366065346868811e+06  -6.3166032104449272e+06  9.9176776377617531e+06  -1.0052529053416409e+07  1.5740510704230713e+07  2.2978304146669271e-01  0.0000000000000000e+00  1.6435150252719682e+06  -9.7134259094448593e+06  -5.3946493448329307e+06  -3.8056918657655125e+06  -8.1328056882420667e+06  1.1948708620927506e+06  -9.5129599899840411e+06  2.7330768660474410e+06  -8.7730130716302618e+06  4.6230929123287098e+06  -8.2773650380887249e+06  2.9054516289766738e+06  -3.6066264036198831e+06  2.4056032972696749e+06  -5.1812834183481373e+06  4.8478627144574197e+06  -6.4713461814106768e+06  5.5927108401039941e+06  -4.7448019324025903e+06  4.4270514667035183e+06  -5.2165293773350976e+06  4.6518921932751192e+06  -4.0912274647675236e+06  1.8304591708918547e+06  -3.9573237378230109e+06  -7.2239919970628660e+04  -2.1346352579541137e+06  -7.7352247153914515e+06  5.2216617419551872e+06  1.5694490913646111e-01  0.0000000000000000e+00  2.3257500524144497e+07  -1.1586985905038474e+07  1.7545455283435572e+07  -9.0445447377332970e+06  1.9415797716266233e+07  -1.1841831952365248e+07  2.0003193086689815e+07  -1.1290751752289100e+07  1.6346616022018269e+07  -8.7732369856821839e+06  1.1408822291949661e+07  -5.6346195350325545e+06  7.2755568065441363e+06  -5.5546398907573018e+06  8.1512282430601390e+06  -6.0772518732070634e+06  6.8381281417237110e+06  -4.8209007857291121e+06  5.0852706144673033e+06  -5.2165293633421184e+06  5.2720342978104586e+06  -4.2533500273620915e+06  4.0468002263362077e+06  -4.2584360125566274e+06  5.9837641861688029e+06  -5.3469030134167252e+06  6.7547183564744852e+06  -9.1741992660456002e+06  1.6143569697505884e+07  1.0297167638785998e-01  0.0000000000000000e+00  9.9488608549836127e+05  -7.2126245230617356e+06  -1.1079048068917572e+07  3.1482385512716160e+05  -1.3821457569909088e+07  2.4530420208907346e+06  -1.2410506330337228e+07  3.7456322390832505e+06  -1.1290886926401522e+07  2.7332622702420778e+06  -6.2365272674733512e+06  1.5238682240678929e+06  -4.7863733872306496e+06  2.4698714343482293e+06  -5.5612977934408039e+06  2.9171868396265777e+06  -5.0326727945451466e+06  3.6125623862436325e+06  -5.3077152231044825e+06  4.6518921696253689e+06  -4.2533500229272638e+06  3.4604685083429385e+06  -3.9935112597304564e+06  3.4931095947417957e+06  -4.3368731814825572e+06  -1.4343241694146532e+05  -2.1298756101611219e+06  -6.6625312279262887e+06  7.3262228153687604e+06  6.4284634782294486e-02  0.0000000000000000e+00  3.4098037147044390e+07  -1.9969454757841866e+07  2.9253039234541319e+07  -2.1056397899788477e+07  3.1782587251594041e+07  -1.7983292071585640e+07  2.4441946521452103e+07  -1.2410584583546733e+07  2.0003303685969196e+07  -9.5129901638507098e+06  1.1921301150593145e+07  -5.9688915311579891e+06  9.2119130195979215e+06  -5.0559035253730491e+06  8.5556898453542721e+06  -4.9891626124947034e+06  7.9016407798212925e+06  -5.1791837859001216e+06  6.4389099350647470e+06  -4.0912274232103284e+06  4.0468002200345695e+06  -3.9935112513694400e+06  4.1332172587050777e+06  -4.4820120471641375e+06  3.0564110619992581e+06  -3.3276837115714536e+06  3.8229779895273270e+06  -8.2880394328045500e+06  1.7270658079654787e+07  3.7682472683664266e-02  0.0000000000000000e+00  -5.5430113024353171e+06  -1.1846043569659456e+06  -1.8439204138246141e+07  3.2710413867515242e+06  -2.0069526648536969e+07  5.9051742673398573e+06  -1.7983334896510459e+07  2.4531051008589417e+06  -1.1841851578071872e+07  1.1948076020054442e+06  -4.9604309110540813e+06  -1.0424958523244108e+06  -4.5437258267099941e+06  1.8634636680680598e+05  -5.8843421821778854e+06  1.6750052824634712e+06  -5.8287850065765791e+06  1.7530514240028167e+06  -4.3377010224483004e+06  1.8304591402699766e+06  -4.2584360167417908e+06  3.4931095748575404e+06  -4.4820120420906907e+06  2.4251891978634708e+06  -2.9442944028542158e+06  4.3596480178065400e+05  -4.6225776542860363e+06  -3.5113988698371039e+06  1.0351404473846283e+07  2.0340060224085334e-02  0.0000000000000000e+00  5.9566717593133003e+07  -3.2508705176898975e+07  4.5212503955819517e+07  -3.0252555992387887e+07  3.7115118415350616e+07  -2.0069549761750598e+07  3.1782621799476329e+07  -1.3821470428954318e+07  1.9415764990581278e+07  -8.1327514066776643e+06  1.1755596989224436e+07  -4.7909970558121661e+06  1.1270958697967285e+07  -5.1366267423289660e+06  1.1001855435546270e+07  -4.3785606298665442e+06  8.6812368119014055e+06  -3.1750044977463554e+06  6.8366065263138218e+06  -3.9573236451290823e+06  5.9837641658476489e+06  -4.3368731347489264e+06  3.0564110575288953e+06  -2.9442943981121150e+06  1.3001397704706700e+06  -4.5332437810709383e+06  1.3126576871466539e+06  -3.8168249951816550e+06  1.8170802285503201e+07  9.8090568210288057e-03  0.0000000000000000e+00  -1.8004810201422025e+07  2.9995384124819404e+06  -2.9745515797703702e+07  1.1837494530700125e+07  -3.0252567239041012e+07  3.2710595725311395e+06  -2.10564