<?xml version="1.0"?>
<VTKFile type="UnstructuredGrid"  version="0.1"  >
<UnstructuredGrid>
<Piece  NumberOfPoints="961" NumberOfCells="1800">
<Points>
<DataArray  type="Float64"  NumberOfComponents="3"  format="ascii">-1 -1 0  -0.9333333333333333 -1 0  -0.8666666666666667 -1 0  -0.8 -1 0  -0.7333333333333334 -1 0  -0.6666666666666667 -1 0  -0.6 -1 0  -0.5333333333333333 -1 0  -0.4666666666666667 -1 0  -0.4 -1 0  -0.3333333333333334 -1 0  -0.2666666666666667 -1 0  -0.2 -1 0  -0.1333333333333333 -1 0  -0.06666666666666665 -1 0  0 -1 0  0.06666666666666665 -1 0  0.1333333333333333 -1 0  0.2 -1 0  0.2666666666666666 -1 0  0.3333333333333333 -1 0  0.3999999999999999 -1 0  0.4666666666666666 -1 0  0.5333333333333334 -1 0  0.6000000000000001 -1 0  0.6666666666666667 -1 0  0.7333333333333334 -1 0  0.8 -1 0  0.8666666666666667 -1 0  0.9333333333333333 -1 0  1 -1 0  -1 -0.9333333333333333 0  -0.9333333333333333 -0.9333333333333333 0  -0.8666666666666667 -0.9333333333333333 0  -0.8 -0.9333333333333333 0  -0.7333333333333334 -0.9333333333333333 0  -0.6666666666666667 -0.9333333333333333 0  -0.6 -0.9333333333333333 0  -0.5333333333333333 -0.9333333333333333 0  -0.4666666666666667 -0.9333333333333333 0  -0.4 -0.9333333333333333 0  -0.3333333333333334 -0.9333333333333333 0  -0.2666666666666667 -0.9333333333333333 0  -0.2 -0.9333333333333333 0  -0.1333333333333333 -0.9333333333333333 0  -0.06666666666666665 -0.9333333333333333 0  0 -0.9333333333333333 0  0.06666666666666665 -0.9333333333333333 0  0.1333333333333333 -0.9333333333333333 0  0.2 -0.9333333333333333 0  0.2666666666666666 -0.9333333333333333 0  0.3333333333333333 -0.9333333333333333 0  0.3999999999999999 -0.9333333333333333 0  0.4666666666666666 -0.9333333333333333 0  0.5333333333333334 -0.9333333333333333 0  0.6000000000000001 -0.9333333333333333 0  0.6666666666666667 -0.9333333333333333 0  0.7333333333333334 -0.9333333333333333 0  0.8 -0.9333333333333333 0  0.8666666666666667 -0.9333333333333333 0  0.9333333333333333 -0.9333333333333333 0  1 -0.9333333333333333 0  -1 -0.8666666666666667 0  -0.9333333333333333 -0.8666666666666667 0  -0.8666666666666667 -0.8666666666666667 0  -0.8 -0.8666666666666667 0  -0.7333333333333334 -0.8666666666666667 0  -0.6666666666666667 -0.8666666666666667 0  -0.6 -0.8666666666666667 0  -0.5333333333333333 -0.8666666666666667 0  -0.4666666666666667 -0.8666666666666667 0  -0.4 -0.8666666666666667 0  -0.3333333333333334 -0.8666666666666667 0  -0.2666666666666667 -0.8666666666666667 0  -0.2 -0.8666666666666667 0  -0.1333333333333333 -0.8666666666666667 0  -0.06666666666666665 -0.8666666666666667 0  0 -0.8666666666666667 0  0.06666666666666665 -0.8666666666666667 0  0.1333333333333333 -0.8666666666666667 0  0.2 -0.8666666666666667 0  0.2666666666666666 -0.8666666666666667 0  0.3333333333333333 -0.8666666666666667 0  0.3999999999999999 -0.8666666666666667 0  0.4666666666666666 -0.8666666666666667 0  0.5333333333333334 -0.8666666666666667 0  0.6000000000000001 -0.8666666666666667 0  0.6666666666666667 -0.8666666666666667 0  0.7333333333333334 -0.8666666666666667 0  0.8 -0.8666666666666667 0  0.8666666666666667 -0.8666666666666667 0  0.9333333333333333 -0.8666666666666667 0  1 -0.8666666666666667 0  -1 -0.8 0  -0.9333333333333333 -0.8 0  -0.8666666666666667 -0.8 0  -0.8 -0.8 0  -0.7333333333333334 -0.8 0  -0.6666666666666667 -0.8 0  -0.6 -0.8 0  -0.5333333333333333 -0.8 0  -0.4666666666666667 -0.8 0  -0.4 -0.8 0  -0.3333333333333334 -0.8 0  -0.2666666666666667 -0.8 0  -0.2 -0.8 0  -0.1333333333333333 -0.8 0  -0.06666666666666665 -0.8 0  0 -0.8 0  0.06666666666666665 -0.8 0  0.1333333333333333 -0.8 0  0.2 -0.8 0  0.2666666666666666 -0.8 0  0.3333333333333333 -0.8 0  0.3999999999999999 -0.8 0  0.4666666666666666 -0.8 0  0.5333333333333334 -0.8 0  0.6000000000000001 -0.8 0  0.6666666666666667 -0.8 0  0.7333333333333334 -0.8 0  0.8 -0.8 0  0.8666666666666667 -0.8 0  0.9333333333333333 -0.8 0  1 -0.8 0  -1 -0.7333333333333334 0  -0.9333333333333333 -0.7333333333333334 0  -0.8666666666666667 -0.7333333333333334 0  -0.8 -0.7333333333333334 0  -0.7333333333333334 -0.7333333333333334 0  -0.6666666666666667 -0.7333333333333334 0  -0.6 -0.7333333333333334 0  -0.5333333333333333 -0.7333333333333334 0  -0.4666666666666667 -0.7333333333333334 0  -0.4 -0.7333333333333334 0  -0.3333333333333334 -0.7333333333333334 0  -0.2666666666666667 -0.7333333333333334 0  -0.2 -0.7333333333333334 0  -0.1333333333333333 -0.7333333333333334 0  -0.06666666666666665 -0.7333333333333334 0  0 -0.7333333333333334 0  0.06666666666666665 -0.7333333333333334 0  0.1333333333333333 -0.7333333333333334 0  0.2 -0.7333333333333334 0  0.2666666666666666 -0.7333333333333334 0  0.3333333333333333 -0.7333333333333334 0  0.3999999999999999 -0.7333333333333334 0  0.4666666666666666 -0.7333333333333334 0  0.5333333333333334 -0.7333333333333334 0  0.6000000000000001 -0.7333333333333334 0  0.6666666666666667 -0.7333333333333334 0  0.7333333333333334 -0.7333333333333334 0  0.8 -0.7333333333333334 0  0.8666666666666667 -0.7333333333333334 0  0.9333333333333333 -0.7333333333333334 0  1 -0.7333333333333334 0  -1 -0.6666666666666667 0  -0.9333333333333333 -0.6666666666666667 0  -0.8666666666666667 -0.6666666666666667 0  -0.8 -0.6666666666666667 0  -0.7333333333333334 -0.6666666666666667 0  -0.6666666666666667 -0.6666666666666667 0  -0.6 -0.6666666666666667 0  -0.5333333333333333 -0.6666666666666667 0  -0.4666666666666667 -0.6666666666666667 0  -0.4 -0.6666666666666667 0  -0.3333333333333334 -0.6666666666666667 0  -0.2666666666666667 -0.6666666666666667 0  -0.2 -0.6666666666666667 0  -0.1333333333333333 -0.6666666666666667 0  -0.06666666666666665 -0.6666666666666667 0  0 -0.6666666666666667 0  0.06666666666666665 -0.6666666666666667 0  0.1333333333333333 -0.6666666666666667 0  0.2 -0.6666666666666667 0  0.2666666666666666 -0.6666666666666667 0  0.3333333333333333 -0.6666666666666667 0  0.3999999999999999 -0.6666666666666667 0  0.4666666666666666 -0.6666666666666667 0  0.5333333333333334 -0.6666666666666667 0  0.6000000000000001 -0.6666666666666667 0  0.6666666666666667 -0.6666666666666667 0  0.7333333333333334 -0.6666666666666667 0  0.8 -0.6666666666666667 0  0.8666666666666667 -0.6666666666666667 0  0.9333333333333333 -0.6666666666666667 0  1 -0.6666666666666667 0  -1 -0.6 0  -0.9333333333333333 -0.6 0  -0.8666666666666667 -0.6 0  -0.8 -0.6 0  -0.7333333333333334 -0.6 0  -0.6666666666666667 -0.6 0  -0.6 -0.6 0  -0.5333333333333333 -0.6 0  -0.4666666666666667 -0.6 0  -0.4 -0.6 0  -0.3333333333333334 -0.6 0  -0.2666666666666667 -0.6 0  -0.2 -0.6 0  -0.1333333333333333 -0.6 0  -0.06666666666666665 -0.6 0  0 -0.6 0  0.06666666666666665 -0.6 0  0.1333333333333333 -0.6 0  0.2 -0.6 0  0.2666666666666666 -0.6 0  0.3333333333333333 -0.6 0  0.3999999999999999 -0.6 0  0.4666666666666666 -0.6 0  0.5333333333333334 -0.6 0  0.6000000000000001 -0.6 0  0.6666666666666667 -0.6 0  0.7333333333333334 -0.6 0  0.8 -0.6 0  0.8666666666666667 -0.6 0  0.9333333333333333 -0.6 0  1 -0.6 0  -1 -0.5333333333333333 0  -0.9333333333333333 -0.5333333333333333 0  -0.8666666666666667 -0.5333333333333333 0  -0.8 -0.5333333333333333 0  -0.7333333333333334 -0.5333333333333333 0  -0.6666666666666667 -0.5333333333333333 0  -0.6 -0.5333333333333333 0  -0.5333333333333333 -0.5333333333333333 0  -0.4666666666666667 -0.5333333333333333 0  -0.4 -0.5333333333333333 0  -0.3333333333333334 -0.5333333333333333 0  -0.2666666666666667 -0.5333333333333333 0  -0.2 -0.5333333333333333 0  -0.1333333333333333 -0.5333333333333333 0  -0.06666666666666665 -0.5333333333333333 0  0 -0.5333333333333333 0  0.06666666666666665 -0.5333333333333333 0  0.1333333333333333 -0.5333333333333333 0  0.2 -0.5333333333333333 0  0.2666666666666666 -0.5333333333333333 0  0.3333333333333333 -0.5333333333333333 0  0.3999999999999999 -0.5333333333333333 0  0.4666666666666666 -0.5333333333333333 0  0.5333333333333334 -0.5333333333333333 0  0.6000000000000001 -0.5333333333333333 0  0.6666666666666667 -0.5333333333333333 0  0.7333333333333334 -0.5333333333333333 0  0.8 -0.5333333333333333 0  0.8666666666666667 -0.5333333333333333 0  0.9333333333333333 -0.5333333333333333 0  1 -0.5333333333333333 0  -1 -0.4666666666666667 0  -0.9333333333333333 -0.4666666666666667 0  -0.8666666666666667 -0.4666666666666667 0  -0.8 -0.4666666666666667 0  -0.7333333333333334 -0.4666666666666667 0  -0.6666666666666667 -0.4666666666666667 0  -0.6 -0.4666666666666667 0  -0.5333333333333333 -0.4666666666666667 0  -0.4666666666666667 -0.4666666666666667 0  -0.4 -0.4666666666666667 0  -0.3333333333333334 -0.4666666666666667 0  -0.2666666666666667 -0.4666666666666667 0  -0.2 -0.4666666666666667 0  -0.1333333333333333 -0.4666666666666667 0  -0.06666666666666665 -0.4666666666666667 0  0 -0.4666666666666667 0  0.06666666666666665 -0.4666666666666667 0  0.1333333333333333 -0.4666666666666667 0  0.2 -0.4666666666666667 0  0.2666666666666666 -0.4666666666666667 0  0.3333333333333333 -0.4666666666666667 0  0.3999999999999999 -0.4666666666666667 0  0.4666666666666666 -0.4666666666666667 0  0.5333333333333334 -0.4666666666666667 0  0.6000000000000001 -0.4666666666666667 0  0.6666666666666667 -0.4666666666666667 0  0.7333333333333334 -0.4666666666666667 0  0.8 -0.4666666666666667 0  0.8666666666666667 -0.4666666666666667 0  0.9333333333333333 -0.4666666666666667 0  1 -0.4666666666666667 0  -1 -0.4 0  -0.9333333333333333 -0.4 0  -0.8666666666666667 -0.4 0  -0.8 -0.4 0  -0.7333333333333334 -0.4 0  -0.6666666666666667 -0.4 0  -0.6 -0.4 0  -0.5333333333333333 -0.4 0  -0.4666666666666667 -0.4 0  -0.4 -0.4 0  -0.3333333333333334 -0.4 0  -0.2666666666666667 -0.4 0  -0.2 -0.4 0  -0.1333333333333333 -0.4 0  -0.06666666666666665 -0.4 0  0 -0.4 0  0.06666666666666665 -0.4 0  0.1333333333333333 -0.4 0  0.2 -0.4 0  0.2666666666666666 -0.4 0  0.3333333333333333 -0.4 0  0.3999999999999999 -0.4 0  0.4666666666666666 -0.4 0  0.5333333333333334 -0.4 0  0.6000000000000001 -0.4 0  0.6666666666666667 -0.4 0  0.7333333333333334 -0.4 0 
[...]
<PointData  Scalars="f_24"> 
<DataArray  type="Float64"  Name="f_24"  format="ascii">0.0000000000000000e+00  0.0000000000000000e+00  0.0000000000000000e+00  0.0000000000000000e+00  0.0000000000000000e+00  0.0000000000000000e+00  0.0000000000000000e+00  0.0000000000000000e+00  0.0000000000000000e+00  0.0000000000000000e+00  0.0000000000000000e+00  0.0000000000000000e+00  0.0000000000000000e+00  0.0000000000000000e+00  0.0000000000000000e+00  0.0000000000000000e+00  0.0000000000000000e+00  0.0000000000000000e+00  0.0000000000000000e+00  0.0000000000000000e+00  0.0000000000000000e+00  0.0000000000000000e+00  0.0000000000000000e+00  0.0000000000000000e+00  0.0000000000000000e+00  2.2885495489446248e-08  0.0000000000000000e+00  4.6502428320336852e-07  0.0000000000000000e+00  0.0000000000000000e+00  1.3498637065542137e+01  0.0000000000000000e+00  1.2269245325092718e+07  1.3359998823824367e+07  1.9444406805259965e+07  1.3929294794105435e+07  1.9115011746593259e+07  1.0789822961948887e+07  1.8119173370055825e+07  7.5458338955581198e+06  1.6897794789952226e+07  5.2926764454211080e+06  1.6456226715728343e+07  3.0524279662344246e+06  1.7147804164606918e+07  1.3819503716507088e+06  1.7940059891464759e+07  8.0098623137476784e+05  1.9094724548826411e+07  7.4999983079960500e+05  2.0967155665087860e+07  1.4945387572718014e+06  2.4452874633632246e+07  8.2474099745240365e+05  3.5988349136442557e+07  -6.0859470924063064e+06  6.3070870379757322e+07  -1.9270610152354162e+07  1.0475350099775268e+08  -1.1832333078602821e+07  2.2812653665398344e+08  1.1786826570807047e+01  0.0000000000000000e+00  1.3359998802433077e+07  1.4613204892919555e+07  5.7071742465593824e+06  2.3675613176914379e+06  -4.2969390283818813e+06  -3.9688501835121191e+06  -9.0269503129433896e+06  -7.2811399467853475e+06  -9.9257808635004982e+06  -8.3758606800447898e+06  -1.0816443091531100e+07  -7.9482355326311225e+06  -1.1158859498120189e+07  -8.4690140747428071e+06  -1.0544589118783794e+07  -9.2643636120034624e+06  -1.0687784964219224e+07  -9.6754691531252433e+06  -1.0891900167071046e+07  -1.0472236581863321e+07  -1.2482555507671988e+07  -7.8587925419369899e+06  -2.1423051342353936e+07  -1.4899329836152967e+06  -3.4754755955279388e+07  2.9583951779578151e+06  -3.0042005873034917e+07  -1.8553624531819738e+07  -1.1832341575596090e+07  1.0243232423980484e+01  -1.2468998766046413e-08  1.9444406795940854e+07  5.7071742502277242e+06  1.8593003054139882e+06  -5.0187861710329503e+06  1.2007747046374967e+06  -5.0465393329433603e+06  3.9807994424205748e+06  -2.2842574250224959e+06  7.1976782995751845e+06  -2.2027996863982510e+06  1.0623972921138942e+07  -2.4779576509470707e+06  1.1905357086495886e+07  -2.1542454171652379e+06  1.3047334145353740e+07  -3.3271146723178909e+06  1.4994935327423701e+07  -4.5172231100951219e+06  1.5497296449681785e+07  -5.6656086602551080e+06  1.8654746931855846e+07  -1.1786069704667019e+07  3.0985781999099806e+07  -1.9711622360968318e+07  4.7823273637331903e+07  -3.1806393048265878e+07  5.7212129445000269e+07  -3.0042005288593628e+07  1.0475350264846388e+08  8.8564558055138694e+00  0.0000000000000000e+00  1.3929294727726940e+07  2.3675613381864433e+06  -5.0187861772683794e+06  4.0567202335642825e+05  -4.8928058145747883e+06  4.7317439014892856e+05  -3.4499019055909752e+06  -1.7221882411815863e+04  -5.5106415557895126e+06  1.0647596468940601e+05  -6.5178391640227521e+06  -1.6174235192920638e+06  -6.1400297928255927e+06  -2.5206076924417997e+06  -7.0278573061817056e+06  -2.2571409368426558e+06  -7.1206451963581573e+06  -3.7173214853189583e+06  -5.4713374704517527e+06  -3.8623367823787993e+06  -9.4420579921839815e+06  4.6403158407004003e+05  -2.2279412477254584e+07  3.4815532913052933e+06  -3.2199847104850467e+07  1.2407914564279469e+07  -3.1806401987706363e+07  2.9584012114452939e+06  -1.9270617265981257e+07  7.6154977427940551e+00  6.3004258288863593e-10  1.9115011727571961e+07  -4.2969389893318620e+06  1.2007747114119094e+06  -4.8928058184617506e+06  1.4185834027111097e+06  -3.0017145249241921e+06  3.4169480058724969e+06  -4.4192051755703837e+06  6.5332158744829204e+06  -4.0390352685596296e+06  7.4035978470359622e+06  -3.2435141487772423e+06  9.3331311827028226e+06  -4.5418309414921561e+06  1.1787021354300590e+07  -5.3469365867901500e+06  1.2082265000867108e+07  -4.9606070775289787e+06  1.2624812634172304e+07  -8.4754288976596929e+06  2.0791602622568250e+07  -1.4495236825191611e+07  3.3912928111070938e+07  -2.1191935171819560e+07  3.9444372458925344e+07  -3.2199857903759908e+07  4.7823283809319951e+07  -3.4754757056050226e+07  6.3070869815975271e+07  6.5097593873177759e+00  0.0000000000000000e+00  1.0789822865428846e+07  -3.9688501249912824e+06  -5.0465393879323304e+06  4.7317440238398325e+05  -3.0017145299476278e+06  2.7535447868327070e+06  -4.5774663091918072e+06  3.8661233164948369e+06  -4.3981998779883469e+06  2.0360764323326407e+06  -4.5372811378276218e+06  1.9129533265479191e+06  -6.1481781824497590e+06  1.8140283677320061e+06  -6.2143153075123085e+06  2.3348009733993109e+05  -4.7827449303946486e+06  -1.0545400998634426e+06  -5.1981808016790198e+06  1.3610443421282796e+06  -1.2451906253515726e+07  2.7585054992619678e+06  -1.8918366156271499e+07  6.4423583836706383e+06  -2.1191961045018803e+07  3.4815732835273328e+06  -1.9711629975191817e+07  -1.4899338466082178e+06  -6.0859495132528739e+06  5.5290417420460605e+00  -7.4858552509031300e-09  1.8119173359710339e+07  -9.0269502551364545e+06  3.9807994369305717e+06  -3.4499018835340603e+06  3.4169480106856851e+06  -4.5774663145748563e+06  4.5359597744256817e+06  -4.1390055338361221e+06  4.3597698957169466e+06  -4.3077248759756014e+06  6.8572208636148674e+06  -5.4881431576406788e+06  8.3972724480727930e+06  -5.2927377913978733e+06  9.0888687329118662e+06  -5.3631530751846619e+06  9.7890171888906155e+06  -6.3256721485671019e+06  1.2680181529139854e+07  -1.0063094699886808e+07  2.1304042746890839e+07  -1.3076521931123879e+07  2.6097734060096215e+07  -1.8918411100177299e+07  3.3912965154064216e+07  -2.2279419935175635e+07  3.0985775404293425e+07  -2.1423044203674447e+07  3.5988347986290745e+07  4.6635457963683660e+00  0.0000000000000000e+00  7.5458337680323822e+06  -7.2811398640192132e+06  -2.2842575154358884e+06  -1.7221849722078176e+04  -4.4192052249959139e+06  3.8661233375684265e+06  -4.1390055427143434e+06  3.7284702884854232e+06  -4.4916897167772623e+06  4.9486819194333320e+06  -5.6332615200623944e+06  3.8364636994740604e+06  -5.3441272501348890e+06  3.0966937223286335e+06  -5.9052924259375948e+06  2.6221970122556319e+06  -5.0825419354126826e+06  1.6190982552997528e+06  -6.6185177059959779e+06  2.9123460667340439e+06  -1.1962773761349374e+07  4.0326834723436725e+06  -1.3076605694723945e+07  2.7585728509797356e+06  -1.4495251715863386e+07  4.6401572965956380e+05  -1.1786057620377384e+07  -7.8587939000403592e+06  8.2473608512809849e+05  3.9038724992909133e+00  2.1626249052091783e-08  1.6897794790363073e+07  -9.9257807789872698e+06  7.1976782805699622e+06  -5.5106415243294649e+06  6.5332158964993721e+06  -4.3981998736957032e+06  4.3597699024465336e+06  -4.4916897214862341e+06  5.6044598493522387e+06  -5.5387349804816730e+06  5.3991107484596428e+06  -5.1198141345811980e+06  7.2598987305849632e+06  -6.4531656622948116e+06  8.6547401897243354e+06  -5.8990496151984781e+06  7.7250480382022811e+06  -5.9835846197451223e+06  1.2113628366397420e+07  -9.3139914918263853e+06  1.7365099786297202e+07  -1.1962916953532977e+07  2.1304160357639302e+07  -1.2451926907665182e+07  2.0791568207017507e+07  -9.4420275581916627e+06  1.8654741876294035e+07  -1.2482560390550582e+07  2.4452877853518508e+07  3.2410227242093699e+00  0.0000000000000000e+00  5.2926762926081372e+06  -8.3758605806119628e+06  -2.2027998337036152e+06  1.0647604808786255e+05  -4.0390353661449803e+06  2.0360764645082073e+06  -4.3077249199739723e+06  4.9486819445061646e+06  -5.5387349953406379e+06  4.7002431169668166e+06  -5.0386764514615526e+06  5.9378412120629726e+06  -6.8709601184276240e+06  5.1476295027895365e+06  -5.5020259831077727e+06  2.5548092003292763e+06  -3.8294895774702290e+06  3.0841992343194666e+06  -8.7893606806163229e+06  4.9082844016067423e+06  -9.3142296171245631e+06  2.9125431533811307e+06  -1.0063127526791740e+07  1.3609777662202993e+06  -8.4753724000270944e+06  -3.8623461923409551e+06  -5.6656241209287010e+06  -1.0472225987476761e+07  1.4945355258620898e+06  2.6663974450453618e+00  7.9196399083078995e-09  1.6456226731102956e+07  -1.0816443000383990e+07  1.0623972922453759e+07  -6.5178391230547260e+06  7.4035978573580449e+06  -4.5372811136457706e+06  6.8572208957146173e+06  -5.6332615344651304e+06  5.3991107652114071e+06  -5.0386764572583893e+06  6.6698113484944561e+06  -7.2217311615786692e+06  6.4141911594964191e+06  -5.1301767313968288e+06  6.0663726736396970e+06  -4.7732535216434719e+06  7.0401032848258652e+06  -7.5958092899339637e+06  1.2668861049002763e+07  -8.7897305701374188e+06  1.2113941368824167e+07  -6.6185628936285665e+06  1.2680060545028713e+07  -5.1980758970194384e+06  1.2624795237535197e+07  -5.4713655791110937e+06  1.5497317922415109e+07  -1.0891901369552050e+07  2.0967152034793772e+07  2.1717973839734772e+00  0.0000000000000000e+00  3.0524277681925301e+06  -7.9482353935643928e+06  -2.4779578627085625e+06  -1.6174234120918131e+06  -3.2435142851156476e+06  1.9129534035067970e+06  -5.4881432725629536e+06  3.8364637507859287e+06  -5.1198141847261777e+06  5.9378412443056423e+06  -7.2217311882693488e+06  5.6956712433071816e+06  -4.4846256133638527e+06  5.0356405227494184e+06  -6.0036302019025050e+06  4.3067865416701678e+06  -5.6247316516469279e+06  5.2176922775434172e+06  -7.5963477569451649e+06  3.0846659218586008e+06  -5.9836457182886982e+06  1.6188937726116129e+06  -6.3254956852538623e+06  -1.0545677238094623e+06  -4.9606628733200831e+06  -3.7172789401843795e+06  -4.5172279197922405e+06  -9.6754790813418552e+06  7.5000278817578207e+05  1.7494233636942609e+00  -4.4489781617158080e-06  1.7147804214024410e+07  -1.1158859403561207e+07  1.1905357091576392e+07  -6.1400297206070339e+06  9.3331312061415762e+06  -6.1481781760537690e+06  8.3972725038839765e+06  -5.3441272519974876e+06  7.2598987810930386e+06  -6.8709601626440082e+06  6.4141912022607550e+06  -4.4846256229921458e+06  5.7403996390224481e+06  -7.5352182591725485e+06  6.4990730530856401e+06  -3.9026594073051610e+06  5.5342199870486716e+06  -5.6254526721230615e+06  7.0407490485436739e+06  -3.8295638850035188e+06  7.7247271409676820e+06  -5.0822616587569769e+06  9.7889769456658047e+06  -4.7828428227893664e+06  1.2082341367108479e+07  -7.1206505579139404e+06  1.4994912033957925e+07  -1.0687771710248891e+07  1.9094724921404142e+07  1.3918761312977097e+00  0.0000000000000000e+00  1.3819501070955342e+06  -8.4690139058861434e+06  -2.1542456812606901e+06  -2.5206075468505821e+06  -4.5418311699265651e+06  1.8140285112836233e+06  -5.2927379670647681e+06  3.0966938205796881e+06  -6.4531658123834729e+06  5.1476295981905656e+06  -5.1301768041091943e+06  5.0356405606343811e+06  -7.5352183079348831e+06  6.4726977346147876e+06  -2.3667524880999825e+06  7.2828278081113624e+05  -3.9035419743527644e+06  4.3076078414699202e+06  -4.7733387401214847e+06  2.5543470935941874e+06  -5.8986409644690920e+06  2.6221451232708623e+06  -5.3633176447729701e+06  2.3360868485317161e+05  -5.3469457505048169e+06  -2.2571853239055541e+06  -3.3270897002642881e+06  -9.2643611913025342e+06  8.0097837843243568e+05  1.0921563934905796e+00  1.4995315412988540e-08  1.7940059974866118e+07  -1.0544588994615696e+07  1.3047334164442252e+07  -7.0278572452047048e+06  1.1787021433439381e+07  -6.2143153104991307e+06  9.0888688155712225e+06  -5.9052924657560755e+06  8.6547403153257538e+06  -5.5020260461622048e+06  6.0663727666472662e+06  -6.0036303087207312e+06  6.4990731932459325e+06  -2.3667525471924953e+06  -2.4221624299386563e+05  -2.3677305514101516e+06  6.5000251791538354e+06  -6.0037208214009935e+06  6.0657675161464959e+06  -5.5014776411919380e+06  8.6546800667775646e+06  -5.9055442679260457e+06  9.0890675671987515e+06  -6.2143246990984855e+06  1.1786942528325113e+07  -7.0278096028458290e+06  1.3047338734212855e+07  -1.0544606134805460e+07  1.7940065719929889e+07  8.4366481659638359e-01  0.0000000000000000e+00  8.0098588167363184e+05  -9.2643633981084693e+06  -3.3271150510597276e+06  -2.2571406951620998e+06  -5.3469369329810683e+06  2.3348030609949926e+05  -5.3631533634339320e+06  2.6221972297902913e+06  -5.8990498972072462e+06  2.5548093860987057e+06  -4.7732537626961563e+06  4.3067867587811928e+06  -3.9026595782643785e+06  7.2828278076837235e+05  -2.3677304922914719e+06  6.4736984791140873e+06  -7.5353111009254158e+06  5.0349262936670138e+06  -5.1295077490145219e+06  5.1475665152831441e+06  -6.4535184229290541e+06  3.0969755983233941e+06  -5.2927459070372526e+06  1.8139009451449614e+06  -4.5417535065606078e+06  -2.5205978660343126e+06  -2.1542811220562803e+06  -8.4689996588844806e+06  1.3819520602342866e+06  6.4020202655539105e-01  0.0000000000000000e+00  1.9094724680128064e+07  -1.0687784829284776e+07  1.4994935419563644e+07  -7.1206451682804972e+06  1.2082265137537895e+07  -4.7827449625712335e+06  9.7890173755446728e+06  -5.0825420614131819e+06  7.7250482479979023e+06  -3.8294896934973388e+06  7.0401034792284593e+06  -5.6247317514905976e+06  5.5342199869680870e+06  -3.9035418032892775e+06  6.5000250390044572e+06  -7.5353110521695614e+06  5.7396442947024200e+06  -4.4838853390978314e+06  6.4141288850309169e+06  -6.8714036572098928e+06  7.2602617030082587e+06  -5.3441283586727120e+06  8.3970838979717568e+06  -6.1480607995349867e+06  9.3331487458212953e+06  -6.1400896500487626e+06  1.1905382359833704e+07  -1.1158850921210442e+07  1.7147794802328274e+07  4.7596860404114943e-01  0.0000000000000000e+00  7.4999932457198936e+05  -9.6754688229478765e+06  -4.5172236762196450e+06  -3.7173211374397203e+06  -4.9606075613831570e+06  -1.0545397795349387e+06  -6.3256725982667105e+06  1.6190985492841161e+06  -5.9835849437145824e+06  3.0841993971713199e+06  -7.5958094841388268e+06  5.2176922774915779e+06  -5.6254525721178362e+06  4.3076076242212169e+06  -6.0037207146396320e+06  5.0349262557607340e+06  -4.4838853294686787e+06  5.6956098119042544e+06  -7.2222299128558952e+06  5.9382643595844237e+06  -5.1198067349810358e+06  3.8362123293097522e+06  -5.4879843372006919e+06  1.9129829900925399e+06  -3.2436083907059375e+06  -1.6173828891443387e+06  -2.4779418588209953e+06  -7.9482577946891058e+06  3.0524322772387937e+06  3.4556510887787878e-01  -8.2298557378547960e-09  2.0967155888638251e+07  -1.0891900018849550e+07  1.5497296605168013e+07  -5.4713374225197509e+06  1.2624812815831045e+07  -5.1981808386486769e+06  1.2680181730866725e+07  -6.6185177206711480e+06  1.2113628449085047e+07  -8.7893606143960077e+06  1.2668861048866954e+07  -7.5963475626885425e+06  7.0407488540695021e+06  -4.7733384988919972e+06  6.0657674232802065e+06  -5.1295076762358500e+06  6.4141288423002986e+06  -7.2222298861630503e+06  6.6702567580430247e+06  -5.0386623194902847e+06  5.3988108261482585e+06  -5.6330661659954228e+06  6.8572645215923637e+06  -4.5374125746000018e+06  7.4036553035827391e+06  -6.5178106049174285e+06  1.0623932448597295e+07  -1.0816432174209341e+07  1.6456232871388627e+07  2.4399203120568211e-01  0.0000000000000000e+00  1.4945380034897311e+06  -1.0472236129428111e+07  -5.6656093959487751e+06  -3.8623363951708986e+06  -8.4754294690797720e+06  1.3610446407904734e+06  -1.0063095093684141e+07  2.9123461753891264e+06  -9.3139916739416309e+06  4.9082844010949600e+06  -8.7897306357649788e+06  3.0846657589861085e+06  -3.8295637690670807e+06  2.5543469075563760e+06  -5.5014775783857442e+06  5.1475664197239066e+06  -6.8714036130754957e+06  5.9382643273027940e+06  -5.0386623136938056e+06  4.6999248246322237e+06  -5.5385187932223324e+06  4.9487376071514525e+06  -4.3078908426473681e+06  2.0361502428548865e+06  -4.0389934101816486e+06  1.0641491876833711e+05  -2.2027843812542125e+06  -8.3758449025624804e+06  5.2926647575527839e+06  1.6664984031533511e-01  0.0000000000000000e+00  2.4452874912291057e+07  -1.2482555195366427e+07  1.8654747056170546e+07  -9.4420578281052448e+06  2.0791602786363166e+07  -1.2451906159588631e+07  2.1304042832571965e+07  -1.1962773590833221e+07  1.7365099786013510e+07  -9.3142294340654090e+06  1.2113941285287526e+07  -5.9836453942582663e+06  7.7247269314975431e+06  -5.8986406819975916e+06  8.6546799415992517e+06  -6.4535182725238735e+06  7.2602616526866397e+06  -5.1198066847355682e+06  5.3988108094358984e+06  -5.5385187783600343e+06  5.6045202822112646e+06  -4.4918759876430193e+06  4.3598552665838711e+06  -4.3981442622903977e+06  6.5331337140409676e+06  -5.5106202090863297e+06  7.1977047766956845e+06  -9.9258035768545121e+06  1.6897797477329168e+07  1.0933894151252400e-01  0.0000000000000000e+00  8.2473995208165783e+05  -7.8587920093735745e+06  -1.1786070616068594e+07  4.6403196059636684e+05  -1.4495237442913929e+07  2.7585056824267735e+06  -1.3076522264856545e+07  4.0326834713903605e+06  -1.1962917123647746e+07  2.9125430443383623e+06  -6.6185628780298801e+06  1.6188934783788442e+06  -5.0822615334392665e+06  2.6221449048918048e+06  -5.9055442288477700e+06  3.0969754994795308e+06  -5.3441283572092950e+06  3.8362122777703172e+06  -5.6330661517098350e+06  4.9487375820375616e+06  -4.4918759829372643e+06  3.7285598748158161e+06  -4.1389418329536146e+06  3.8660254548780597e+06  -4.4191803488745783e+06  -1.7183574265149655e+04  -2.2842936056113159e+06  -7.2811355266445838e+06  7.5458418284519576e+06  6.8259774593161279e-02  2.2058050483544975e-08  3.5988349338339262e+07  -2.1423050740966216e+07  3.0985782164694242e+07  -2.2279412228588246e+07  3.3912928293551609e+07  -1.8918365892004363e+07  2.6097734057989173e+07  -1.3076605356977617e+07  2.1304160270925388e+07  -1.0063127133405564e+07  1.2680060342462700e+07  -6.3254952348492630e+06  9.7889767603053357e+06  -5.3633173550163498e+06  9.0890674858918302e+06  -5.2927457302964525e+06  8.3970838429497592e+06  -5.4879842217758158e+06  6.8572644897713885e+06  -4.3078907985138847e+06  4.3598552598974155e+06  -4.1389418240713263e+06  4.5358559904223811e+06  -4.5774391307534436e+06  3.4169951253112950e+06  -3.4499480121294614e+06  3.9808035391891734e+06  -9.0269316729606502e+06  1.8119163548418775e+07  4.0012626659711906e-02  0.0000000000000000e+00  -6.0859486428504828e+06  -1.4899321997207562e+06  -1.9711623583368652e+07  3.4815536144694621e+06  -2.1191935828328267e+07  6.4423583847933616e+06  -1.8918411365066074e+07  2.7585726630467102e+06  -1.2451926998884713e+07  1.3609774689115963e+06  -5.1980758596538855e+06  -1.0545680458144990e+06  -4.7828427931835111e+06  2.3360847330491780e+05  -6.2143246986724176e+06  1.8139007995276134e+06  -6.1480608074831283e+06  1.9129829120796788e+06  -4.5374125994249173e+06  2.0361502103342351e+06  -4.3981442667406583e+06  3.8660254337574961e+06  -4.5774391253748089e+06  2.7535952955604452e+06  -3.0017670067544049e+06  4.7317838542027777e+05  -5.0465132582406839e+06  -3.9688671560120103e+06  1.0789821836455112e+07  2.1597819304867399e-02  0.0000000000000000e+00  6.3070870386418834e+07  -3.4754755015412688e+07  4.7823273933217227e+07  -3.2199846563461702e+07  3.9444372447106652e+07  -2.1191960370776087e+07  3.3912964977781534e+07  -1.4495251097099515e+07  2.0791568037056230e+07  -8.4753718309244644e+06  1.2624795056803204e+07  -4.9606623854589872e+06  1.2082341235769114e+07  -5.3469453987781052e+06  1.1786942454196528e+07  -4.5417532739986619e+06  9.3331487255239189e+06  -3.2436082521525221e+06  7.4036552946984628e+06  -4.0389933117533857e+06  6.5331336924597481e+06  -4.4191802992613651e+06  3.4169951205507601e+06  -3.0017670017260900e+06  1.4185872204050331e+06  -4.8927745708002234e+06  1.2007521465721438e+06  -4.2969404015358724e+06  1.9115019983824499e+07  1.0415615019708431e-02  0.0000000000000000e+00  -1.9270612814505812e+07  2.9583962446646024e+06  -3.1806394367436543e+07  1.2407914547854325e+07  -3.2199858505559783e+07  3.4815729248160957e+06  -2.2279420176