<?xml version="1.0"?>
<VTKFile type="UnstructuredGrid"  version="0.1"  >
<UnstructuredGrid>
<Piece  NumberOfPoints="961" NumberOfCells="1800">
<Points>
<DataArray  type="Float64"  NumberOfComponents="3"  format="ascii">-1 -1 0  -0.9333333333333333 -1 0  -0.8666666666666667 -1 0  -0.8 -1 0  -0.7333333333333334 -1 0  -0.6666666666666667 -1 0  -0.6 -1 0  -0.5333333333333333 -1 0  -0.4666666666666667 -1 0  -0.4 -1 0  -0.3333333333333334 -1 0  -0.2666666666666667 -1 0  -0.2 -1 0  -0.1333333333333333 -1 0  -0.06666666666666665 -1 0  0 -1 0  0.06666666666666665 -1 0  0.1333333333333333 -1 0  0.2 -1 0  0.2666666666666666 -1 0  0.3333333333333333 -1 0  0.3999999999999999 -1 0  0.4666666666666666 -1 0  0.5333333333333334 -1 0  0.6000000000000001 -1 0  0.6666666666666667 -1 0  0.7333333333333334 -1 0  0.8 -1 0  0.8666666666666667 -1 0  0.9333333333333333 -1 0  1 -1 0  -1 -0.9333333333333333 0  -0.9333333333333333 -0.9333333333333333 0  -0.8666666666666667 -0.9333333333333333 0  -0.8 -0.9333333333333333 0  -0.7333333333333334 -0.9333333333333333 0  -0.6666666666666667 -0.9333333333333333 0  -0.6 -0.9333333333333333 0  -0.5333333333333333 -0.9333333333333333 0  -0.4666666666666667 -0.9333333333333333 0  -0.4 -0.9333333333333333 0  -0.3333333333333334 -0.9333333333333333 0  -0.2666666666666667 -0.9333333333333333 0  -0.2 -0.9333333333333333 0  -0.1333333333333333 -0.9333333333333333 0  -0.06666666666666665 -0.9333333333333333 0  0 -0.9333333333333333 0  0.06666666666666665 -0.9333333333333333 0  0.1333333333333333 -0.9333333333333333 0  0.2 -0.9333333333333333 0  0.2666666666666666 -0.9333333333333333 0  0.3333333333333333 -0.9333333333333333 0  0.3999999999999999 -0.9333333333333333 0  0.4666666666666666 -0.9333333333333333 0  0.5333333333333334 -0.9333333333333333 0  0.6000000000000001 -0.9333333333333333 0  0.6666666666666667 -0.9333333333333333 0  0.7333333333333334 -0.9333333333333333 0  0.8 -0.9333333333333333 0  0.8666666666666667 -0.9333333333333333 0  0.9333333333333333 -0.9333333333333333 0  1 -0.9333333333333333 0  -1 -0.8666666666666667 0  -0.9333333333333333 -0.8666666666666667 0  -0.8666666666666667 -0.8666666666666667 0  -0.8 -0.8666666666666667 0  -0.7333333333333334 -0.8666666666666667 0  -0.6666666666666667 -0.8666666666666667 0  -0.6 -0.8666666666666667 0  -0.5333333333333333 -0.8666666666666667 0  -0.4666666666666667 -0.8666666666666667 0  -0.4 -0.8666666666666667 0  -0.3333333333333334 -0.8666666666666667 0  -0.2666666666666667 -0.8666666666666667 0  -0.2 -0.8666666666666667 0  -0.1333333333333333 -0.8666666666666667 0  -0.06666666666666665 -0.8666666666666667 0  0 -0.8666666666666667 0  0.06666666666666665 -0.8666666666666667 0  0.1333333333333333 -0.8666666666666667 0  0.2 -0.8666666666666667 0  0.2666666666666666 -0.8666666666666667 0  0.3333333333333333 -0.8666666666666667 0  0.3999999999999999 -0.8666666666666667 0  0.4666666666666666 -0.8666666666666667 0  0.5333333333333334 -0.8666666666666667 0  0.6000000000000001 -0.8666666666666667 0  0.6666666666666667 -0.8666666666666667 0  0.7333333333333334 -0.8666666666666667 0  0.8 -0.8666666666666667 0  0.8666666666666667 -0.8666666666666667 0  0.9333333333333333 -0.8666666666666667 0  1 -0.8666666666666667 0  -1 -0.8 0  -0.9333333333333333 -0.8 0  -0.8666666666666667 -0.8 0  -0.8 -0.8 0  -0.7333333333333334 -0.8 0  -0.6666666666666667 -0.8 0  -0.6 -0.8 0  -0.5333333333333333 -0.8 0  -0.4666666666666667 -0.8 0  -0.4 -0.8 0  -0.3333333333333334 -0.8 0  -0.2666666666666667 -0.8 0  -0.2 -0.8 0  -0.1333333333333333 -0.8 0  -0.06666666666666665 -0.8 0  0 -0.8 0  0.06666666666666665 -0.8 0  0.1333333333333333 -0.8 0  0.2 -0.8 0  0.2666666666666666 -0.8 0  0.3333333333333333 -0.8 0  0.3999999999999999 -0.8 0  0.4666666666666666 -0.8 0  0.5333333333333334 -0.8 0  0.6000000000000001 -0.8 0  0.6666666666666667 -0.8 0  0.7333333333333334 -0.8 0  0.8 -0.8 0  0.8666666666666667 -0.8 0  0.9333333333333333 -0.8 0  1 -0.8 0  -1 -0.7333333333333334 0  -0.9333333333333333 -0.7333333333333334 0  -0.8666666666666667 -0.7333333333333334 0  -0.8 -0.7333333333333334 0  -0.7333333333333334 -0.7333333333333334 0  -0.6666666666666667 -0.7333333333333334 0  -0.6 -0.7333333333333334 0  -0.5333333333333333 -0.7333333333333334 0  -0.4666666666666667 -0.7333333333333334 0  -0.4 -0.7333333333333334 0  -0.3333333333333334 -0.7333333333333334 0  -0.2666666666666667 -0.7333333333333334 0  -0.2 -0.7333333333333334 0  -0.1333333333333333 -0.7333333333333334 0  -0.06666666666666665 -0.7333333333333334 0  0 -0.7333333333333334 0  0.06666666666666665 -0.7333333333333334 0  0.1333333333333333 -0.7333333333333334 0  0.2 -0.7333333333333334 0  0.2666666666666666 -0.7333333333333334 0  0.3333333333333333 -0.7333333333333334 0  0.3999999999999999 -0.7333333333333334 0  0.4666666666666666 -0.7333333333333334 0  0.5333333333333334 -0.7333333333333334 0  0.6000000000000001 -0.7333333333333334 0  0.6666666666666667 -0.7333333333333334 0  0.7333333333333334 -0.7333333333333334 0  0.8 -0.7333333333333334 0  0.8666666666666667 -0.7333333333333334 0  0.9333333333333333 -0.7333333333333334 0  1 -0.7333333333333334 0  -1 -0.6666666666666667 0  -0.9333333333333333 -0.6666666666666667 0  -0.8666666666666667 -0.6666666666666667 0  -0.8 -0.6666666666666667 0  -0.7333333333333334 -0.6666666666666667 0  -0.6666666666666667 -0.6666666666666667 0  -0.6 -0.6666666666666667 0  -0.5333333333333333 -0.6666666666666667 0  -0.4666666666666667 -0.6666666666666667 0  -0.4 -0.6666666666666667 0  -0.3333333333333334 -0.6666666666666667 0  -0.2666666666666667 -0.6666666666666667 0  -0.2 -0.6666666666666667 0  -0.1333333333333333 -0.6666666666666667 0  -0.06666666666666665 -0.6666666666666667 0  0 -0.6666666666666667 0  0.06666666666666665 -0.6666666666666667 0  0.1333333333333333 -0.6666666666666667 0  0.2 -0.6666666666666667 0  0.2666666666666666 -0.6666666666666667 0  0.3333333333333333 -0.6666666666666667 0  0.3999999999999999 -0.6666666666666667 0  0.4666666666666666 -0.6666666666666667 0  0.5333333333333334 -0.6666666666666667 0  0.6000000000000001 -0.6666666666666667 0  0.6666666666666667 -0.6666666666666667 0  0.7333333333333334 -0.6666666666666667 0  0.8 -0.6666666666666667 0  0.8666666666666667 -0.6666666666666667 0  0.9333333333333333 -0.6666666666666667 0  1 -0.6666666666666667 0  -1 -0.6 0  -0.9333333333333333 -0.6 0  -0.8666666666666667 -0.6 0  -0.8 -0.6 0  -0.7333333333333334 -0.6 0  -0.6666666666666667 -0.6 0  -0.6 -0.6 0  -0.5333333333333333 -0.6 0  -0.4666666666666667 -0.6 0  -0.4 -0.6 0  -0.3333333333333334 -0.6 0  -0.2666666666666667 -0.6 0  -0.2 -0.6 0  -0.1333333333333333 -0.6 0  -0.06666666666666665 -0.6 0  0 -0.6 0  0.06666666666666665 -0.6 0  0.1333333333333333 -0.6 0  0.2 -0.6 0  0.2666666666666666 -0.6 0  0.3333333333333333 -0.6 0  0.3999999999999999 -0.6 0  0.4666666666666666 -0.6 0  0.5333333333333334 -0.6 0  0.6000000000000001 -0.6 0  0.6666666666666667 -0.6 0  0.7333333333333334 -0.6 0  0.8 -0.6 0  0.8666666666666667 -0.6 0  0.9333333333333333 -0.6 0  1 -0.6 0  -1 -0.5333333333333333 0  -0.9333333333333333 -0.5333333333333333 0  -0.8666666666666667 -0.5333333333333333 0  -0.8 -0.5333333333333333 0  -0.7333333333333334 -0.5333333333333333 0  -0.6666666666666667 -0.5333333333333333 0  -0.6 -0.5333333333333333 0  -0.5333333333333333 -0.5333333333333333 0  -0.4666666666666667 -0.5333333333333333 0  -0.4 -0.5333333333333333 0  -0.3333333333333334 -0.5333333333333333 0  -0.2666666666666667 -0.5333333333333333 0  -0.2 -0.5333333333333333 0  -0.1333333333333333 -0.5333333333333333 0  -0.06666666666666665 -0.5333333333333333 0  0 -0.5333333333333333 0  0.06666666666666665 -0.5333333333333333 0  0.1333333333333333 -0.5333333333333333 0  0.2 -0.5333333333333333 0  0.2666666666666666 -0.5333333333333333 0  0.3333333333333333 -0.5333333333333333 0  0.3999999999999999 -0.5333333333333333 0  0.4666666666666666 -0.5333333333333333 0  0.5333333333333334 -0.5333333333333333 0  0.6000000000000001 -0.5333333333333333 0  0.6666666666666667 -0.5333333333333333 0  0.7333333333333334 -0.5333333333333333 0  0.8 -0.5333333333333333 0  0.8666666666666667 -0.5333333333333333 0  0.9333333333333333 -0.5333333333333333 0  1 -0.5333333333333333 0  -1 -0.4666666666666667 0  -0.9333333333333333 -0.4666666666666667 0  -0.8666666666666667 -0.4666666666666667 0  -0.8 -0.4666666666666667 0  -0.7333333333333334 -0.4666666666666667 0  -0.6666666666666667 -0.4666666666666667 0  -0.6 -0.4666666666666667 0  -0.5333333333333333 -0.4666666666666667 0  -0.4666666666666667 -0.4666666666666667 0  -0.4 -0.4666666666666667 0  -0.3333333333333334 -0.4666666666666667 0  -0.2666666666666667 -0.4666666666666667 0  -0.2 -0.4666666666666667 0  -0.1333333333333333 -0.4666666666666667 0  -0.06666666666666665 -0.4666666666666667 0  0 -0.4666666666666667 0  0.06666666666666665 -0.4666666666666667 0  0.1333333333333333 -0.4666666666666667 0  0.2 -0.4666666666666667 0  0.2666666666666666 -0.4666666666666667 0  0.3333333333333333 -0.4666666666666667 0  0.3999999999999999 -0.4666666666666667 0  0.4666666666666666 -0.4666666666666667 0  0.5333333333333334 -0.4666666666666667 0  0.6000000000000001 -0.4666666666666667 0  0.6666666666666667 -0.4666666666666667 0  0.7333333333333334 -0.4666666666666667 0  0.8 -0.4666666666666667 0  0.8666666666666667 -0.4666666666666667 0  0.9333333333333333 -0.4666666666666667 0  1 -0.4666666666666667 0  -1 -0.4 0  -0.9333333333333333 -0.4 0  -0.8666666666666667 -0.4 0  -0.8 -0.4 0  -0.7333333333333334 -0.4 0  -0.6666666666666667 -0.4 0  -0.6 -0.4 0  -0.5333333333333333 -0.4 0  -0.4666666666666667 -0.4 0  -0.4 -0.4 0  -0.3333333333333334 -0.4 0  -0.2666666666666667 -0.4 0  -0.2 -0.4 0  -0.1333333333333333 -0.4 0  -0.06666666666666665 -0.4 0  0 -0.4 0  0.06666666666666665 -0.4 0  0.1333333333333333 -0.4 0  0.2 -0.4 0  0.2666666666666666 -0.4 0  0.3333333333333333 -0.4 0  0.3999999999999999 -0.4 0  0.4666666666666666 -0.4 0  0.5333333333333334 -0.4 0  0.6000000000000001 -0.4 0  0.6666666666666667 -0.4 0  0.7333333333333334 -0.4 0 
[...]
<PointData  Scalars="f_24"> 
<DataArray  type="Float64"  Name="f_24"  format="ascii">0.0000000000000000e+00  0.0000000000000000e+00  0.0000000000000000e+00  0.0000000000000000e+00  0.0000000000000000e+00  0.0000000000000000e+00  0.0000000000000000e+00  0.0000000000000000e+00  0.0000000000000000e+00  0.0000000000000000e+00  0.0000000000000000e+00  0.0000000000000000e+00  0.0000000000000000e+00  0.0000000000000000e+00  0.0000000000000000e+00  0.0000000000000000e+00  0.0000000000000000e+00  0.0000000000000000e+00  0.0000000000000000e+00  0.0000000000000000e+00  0.0000000000000000e+00  0.0000000000000000e+00  0.0000000000000000e+00  0.0000000000000000e+00  0.0000000000000000e+00  9.6173538265248959e-09  0.0000000000000000e+00  -2.4474962273861503e-07  0.0000000000000000e+00  0.0000000000000000e+00  1.3909731766380892e+01  0.0000000000000000e+00  1.2598658927471261e+07  1.3681942298018321e+07  1.9915998531496719e+07  1.4202306668685589e+07  1.9521065697838943e+07  1.0922420228971250e+07  1.8459808357553590e+07  7.5531832009063270e+06  1.7181811270279258e+07  5.2177286702522133e+06  1.6717368674243571e+07  2.9031404295542082e+06  1.7426084653081167e+07  1.1796381129946567e+06  1.8241452943210516e+07  5.8111150722441322e+05  1.9432457486387201e+07  5.3116723283105425e+05  2.1366328952726334e+07  1.3053436841396431e+06  2.4968535171850037e+07  6.2994696129469958e+05  3.6875517268124431e+07  -6.4640687183762360e+06  6.4817531696194388e+07  -2.0006275939084422e+07  1.0782304493280320e+08  -1.2277642630078087e+07  2.3502712711597693e+08  1.2145788880811907e+01  0.0000000000000000e+00  1.3681942275896782e+07  1.4906758453470699e+07  5.6858357143996246e+06  2.2240744820196759e+06  -4.6444844694122961e+06  -4.2936715622651372e+06  -9.4843700112676099e+06  -7.6600919442080474e+06  -1.0359222120282253e+07  -8.7379669054017942e+06  -1.1231798007669888e+07  -8.2594854464226933e+06  -1.1555431628978789e+07  -8.7762248379702009e+06  -1.0912198956421208e+07  -9.5952242317690235e+06  -1.1068966469466951e+07  -1.0037630297643898e+07  -1.1307386442658056e+07  -1.0895212675301032e+07  -1.2990078157593567e+07  -8.2503917366664587e+06  -2.2251652640847839e+07  -1.7317139813962511e+06  -3.6021314880216740e+07  2.8410215233806325e+06  -3.1145774991819225e+07  -1.9266820293079127e+07  -1.2277651385751024e+07  1.0555185295709533e+01  -9.6351354101267736e-09  1.9915998521735314e+07  5.6858357181182718e+06  1.6998157436948719e+06  -5.3645638208561093e+06  1.0940585893518336e+06  -5.2842000261427425e+06  4.0755032358097965e+06  -2.3312991464382545e+06  7.4778944109734306e+06  -2.1805606733610984e+06  1.1056230586246936e+07  -2.4318369427750362e+06  1.2396912649325384e+07  -2.0867448654214949e+06  1.3578482904833991e+07  -3.2959568771298416e+06  1.5579193816719996e+07  -4.5349954262533104e+06  1.6075424394796751e+07  -5.7513842246904345e+06  1.9280851472207241e+07  -1.2124333457547037e+07  3.1901809492539071e+07  -2.0393522939727455e+07  4.9141295468020499e+07  -3.2958985591673717e+07  5.8747011155035518e+07  -3.1145774389534768e+07  1.0782304663392593e+08  9.1261747408258955e+00  0.0000000000000000e+00  1.4202306600055261e+07  2.2240745030383696e+06  -5.3645638273168672e+06  3.0125982755134499e+05  -5.0694857041744227e+06  5.3560869430175074e+05  -3.4548714542535935e+06  1.1095808770781523e+05  -5.5385748791550705e+06  2.4926714148995120e+05  -6.5823829202821134e+06  -1.5404888400964004e+06  -6.2074453657571003e+06  -2.4826669483613144e+06  -7.1288275919888103e+06  -2.2118197700545075e+06  -7.2192438054788550e+06  -3.7062265265830066e+06  -5.5067198875888223e+06  -3.8437506412617886e+06  -9.5941390364351962e+06  6.0147116111728828e+05  -2.2863669754818801e+07  3.6305966362815327e+06  -3.3209614063070554e+07  1.2672869021716578e+07  -3.2958994803304929e+07  2.8410277407182576e+06  -2.0006283269126710e+07  7.8474241773749078e+00  3.8055432876333127e-09  1.9521065677956734e+07  -4.6444844292782899e+06  1.0940585963051922e+06  -5.0694857081627622e+06  1.5302548663130631e+06  -2.9708516540021696e+06  3.6582873266894822e+06  -4.4259235244273897e+06  6.8397870112052150e+06  -4.0760811094627669e+06  7.6962035767021049e+06  -3.2890951525220112e+06  9.6609729105333425e+06  -4.6415890816410482e+06  1.2182656579149835e+07  -5.4710463105344512e+06  1.2493965887284324e+07  -5.0583654406256266e+06  1.3076022202304658e+07  -8.6481865808957946e+06  2.1530676669525489e+07  -1.4811111584879093e+07  3.5078184541966081e+07  -2.1720900949280288e+07  4.0707504615392566e+07  -3.3209625190878600e+07  4.9141305949816622e+07  -3.6021316014398083e+07  6.4817531115491897e+07  6.7080110756080700e+00  0.0000000000000000e+00  1.0922420129198030e+07  -4.2936715020477939e+06  -5.2842000828090850e+06  5.3560870694482280e+05  -2.9708516591734467e+06  2.9731636924275574e+06  -4.6033356344946828e+06  4.0642845547972028e+06  -4.4808334466440817e+06  2.1281517417464317e+06  -4.6583369072401486e+06  1.9805782215029416e+06  -6.3296334480418423e+06  1.8730361833391974e+06  -6.3998824410009542e+06  2.4478639265470637e+05  -4.9218771606744146e+06  -1.0761418519058346e+06  -5.3382406272494961e+06  1.4333953227615790e+06  -1.2779585050727546e+07  2.9222856534872577e+06  -1.9382705014194462e+07  6.7704101765863076e+06  -2.1720927610439502e+07  3.6306172373224567e+06  -2.0393530785821181e+07  -1.7317148705546698e+06  -6.4640712126466753e+06  5.6974261315096140e+00  3.7429276254515650e-09  1.8459808346569445e+07  -9.4843699517505374e+06  4.0755032301745522e+06  -3.4548714314778522e+06  3.6582873316556807e+06  -4.6033356400345955e+06  4.7450758278722055e+06  -4.2290165253672237e+06  4.5069947237540754e+06  -4.4349140749797374e+06  7.0656359252651846e+06  -5.6568298989140615e+06  8.6510256551237796e+06  -5.4556598796000956e+06  9.3637789413146041e+06  -5.5281660536433458e+06  1.0085293248901354e+07  -6.5193946497101551e+06  1.3066822388227776e+07  -1.0363869104860129e+07  2.1968783637256876e+07  -1.3437497325640382e+07  2.6963083733979855e+07  -1.9382751326852020e+07  3.5078222713066705e+07  -2.2863677439920779e+07  3.1901802696852908e+07  -2.2251645284672223e+07  3.6875516083235316e+07  4.8055719101676475e+00  0.0000000000000000e+00  7.5531830691807093e+06  -7.6600918589350889e+06  -2.3312992395685753e+06  1.1095812143937379e+05  -4.4259235753589151e+06  4.0642845765165696e+06  -4.2290165345222494e+06  3.8528159423436010e+06  -4.6275004597544782e+06  5.0977484474727558e+06  -5.8059759722843813e+06  3.9524289504029802e+06  -5.5070177881095205e+06  3.1907841757781319e+06  -6.0849604878568035e+06  2.7018765963922739e+06  -5.2373905383818513e+06  1.6676024132906618e+06  -6.8212555499420967e+06  2.9996042173308898e+06  -1.2325027387113541e+07  4.1677792881304044e+06  -1.3437583640216297e+07  2.9223550563725014e+06  -1.4811126929042896e+07  6.0145482381643576e+05  -1.2124321005285921e+07  -8.2503931360618547e+06  6.2994189967672329e+05  4.0227631168707694e+00  -2.1626249052091782e-09  1.7181811270408932e+07  -1.0359222033175034e+07  7.4778943914284026e+06  -5.5385748466971405e+06  6.8397870338840643e+06  -4.4808334422151037e+06  4.5069947306824308e+06  -4.6275004646028355e+06  5.7732595788420504e+06  -5.7083989971220931e+06  5.5630039341773419e+06  -5.2758090363476276e+06  7.4807839156171186e+06  -6.6497315530209374e+06  8.9180143723359499e+06  -6.0788292219099654e+06  7.9600130447161347e+06  -6.1658291571967313e+06  1.2482273884572826e+07  -9.5982718644679785e+06  1.7892367944935150e+07  -1.2325174940148083e+07  2.1968904829787847e+07  -1.2779606333880885e+07  2.1530641205858149e+07  -9.5941076756283529e+06  1.9280846262592699e+07  -1.2990083189133136e+07  2.4968538490062851e+07  3.3397266074031040e+00  0.0000000000000000e+00  5.2177285125270914e+06  -8.7379668028978202e+06  -2.1805608251195154e+06  2.4926722745794087e+05  -4.0760812100318456e+06  2.1281517749072276e+06  -4.4349141203257060e+06  5.0977484733119812e+06  -5.7083990124379033e+06  4.8431391504306849e+06  -5.1919094196709823e+06  6.1186607521730587e+06  -7.0798979154420523e+06  5.3043622593136085e+06  -5.6692417737853862e+06  2.6326883950702120e+06  -3.9458161348460321e+06  3.1778910760295410e+06  -9.0570397846406586e+06  5.0573774045415325e+06  -9.5985172417622190e+06  2.9998073061588737e+06  -1.0363902931488134e+07  1.4333267193227054e+06  -8.6481283626435082e+06  -3.8437603378278431e+06  -5.7514001562898094e+06  -1.0895201758244537e+07  1.3053403545762664e+06  2.7476013365690664e+00  -7.9196399083078995e-09  1.6717368689869279e+07  -1.1231797913688293e+07  1.1056230587620610e+07  -6.5823828780425135e+06  7.6962035873235874e+06  -4.6583368823125307e+06  7.0656359583331235e+06  -5.8059759871196942e+06  5.5630039514351254e+06  -5.1919094256398296e+06  6.8727472163100746e+06  -7.4415768724894766e+06  6.6092742294512102e+06  -5.2864817038139142e+06  6.2508456822686251e+06  -4.9187921428605048e+06  7.2543295048168814e+06  -7.8268376107577607e+06  1.3054642983217370e+07  -9.0574209389725719e+06  1.2482596419340497e+07  -6.8213021137385452e+06  1.3066697719594540e+07  -5.3381325277505089e+06  1.3076004275859514e+07  -5.5067488522898303e+06  1.6075446521378113e+07  -1.1307387681744415e+07  2.1366325212072060e+07  2.2379384611438566e+00  0.0000000000000000e+00  2.9031402253160561e+06  -8.2594853030594746e+06  -2.4318371609808407e+06  -1.5404887296151177e+06  -3.2890952930234158e+06  1.9805783008137797e+06  -5.6568300173453791e+06  3.9524290032822229e+06  -5.2758090880251778e+06  6.1186607854004614e+06  -7.4415768999970183e+06  5.8690423758019917e+06  -4.6210745145799462e+06  5.1889461026927289e+06  -6.1861899353157440e+06  4.4379449313674318e+06  -5.7959089078159481e+06  5.3761450473107155e+06  -7.8273924765280839e+06  3.1783719763197820e+06  -6.1658921164673101e+06  1.6673917031769399e+06  -6.5192128122892231e+06  -1.0761703171172338e+06  -5.0584229356412943e+06  -3.7061826857572976e+06  -4.5350003825003663e+06  -1.0037640528210429e+07  5.3117028044076264e+05  1.8027012369229636e+00  -7.8578126511920016e-07  1.7426084703887679e+07  -1.1555431531480245e+07  1.2396912654545449e+07  -6.2074452913213884e+06  9.6609729346750919e+06  -6.3296334414387094e+06  8.6510257126229294e+06  -5.5070177900204472e+06  7.4807839676566953e+06  -7.0798979609975796e+06  6.6092742735148156e+06  -4.6210745245028343e+06  5.9149822699353807e+06  -7.7645954274342814e+06  6.6967236193014337e+06  -4.0215984165932341e+06  5.7027924073083205e+06  -5.7966518866293412e+06  7.2549949349610526e+06  -3.9458927053719722e+06  7.9596823746968303e+06  -5.2371017260202374e+06  1.0085251780075399e+07  -4.9219780343214124e+06  1.2494044579222983e+07  -7.2192493303055158e+06  1.5579169813788189e+07  -1.1068952811836718e+07  1.9432457870415632e+07  1.4342650701974053e+00  0.0000000000000000e+00  1.1796378403275351e+06  -8.7762246639229413e+06  -2.0867451375862816e+06  -2.4826667983229859e+06  -4.6415893170360103e+06  1.8730363312642307e+06  -5.4556600606228905e+06  3.1907842770282142e+06  -6.6497317076827008e+06  5.3043623576274849e+06  -5.2864817787427679e+06  5.1889461417294936e+06  -7.7645954776785029e+06  6.6697733389853416e+06  -2.4386918944526380e+06  7.5055035446469730e+05  -4.0225078618139019e+06  4.4387912434709137e+06  -4.9188799566305606e+06  2.6322122150947913e+06  -6.0784081259156093e+06  2.7018231271583145e+06  -5.5283356351289004e+06  2.4491889625064519e+05  -5.4710557533227419e+06  -2.2118655088918670e+06  -3.2959311446173531e+06  -9.5952217373230532e+06  5.8110341518426081e+05  1.1254175074586890e+00  7.4976577064942699e-09  1.8241453029148906e+07  -1.0912198828433253e+07  1.3578482924457848e+07  -7.1288275291368468e+06  1.2182656660691606e+07  -6.3998824440660262e+06  9.3637790264837239e+06  -6.0849605288780732e+06  8.9180145017538648e+06  -5.6692418387508383e+06  6.2508457781015076e+06  -6.1861900453898758e+06  6.6967237637296235e+06  -2.4386919553474057e+06  -2.4985050182302267e+05  -2.4396997442167378e+06  6.6977047419242263e+06  -6.1862833145804275e+06  6.2502220949790971e+06  -5.6686767323636077e+06  8.9179524183646441e+06  -6.0852199995660409e+06  9.3639838309954200e+06  -6.3998921185908811e+06  1.2182575352560267e+07  -7.1287784358517388e+06  1.3578487633397279e+07  -1.0912216490619224e+07  1.8241458949173667e+07  8.6935823539880575e-01  0.0000000000000000e+00  5.8111114693253650e+05  -9.5952240113368556e+06  -3.2959572674591141e+06  -2.2118195210016896e+06  -5.4710466672655055e+06  2.4478660777691306e+05  -5.5281663506785007e+06  2.7018768205555854e+06  -6.0788295125102904e+06  2.6326885865045129e+06  -4.9187923912566109e+06  4.4379451550919656e+06  -4.0215985927550220e+06  7.5055035442938213e+05  -2.4396996833189279e+06  6.6708045606933152e+06  -7.7646910966452360e+06  5.1882101220913026e+06  -5.2857923478914248e+06  5.3042973535581743e+06  -6.6500950568199800e+06  3.1910746361822896e+06  -5.4556682424059482e+06  1.8729048801657890e+06  -4.6415092884677891e+06  -2.4826568226803411e+06  -2.0867816577144400e+06  -8.7762099830360785e+06  1.1796398529490170e+06  6.5969908091023255e-01  1.5406718191165367e-08  1.9432457621792898e+07  -1.1068966330405334e+07  1.5579193911591845e+07  -7.2192437765321555e+06  1.2493966028114494e+07  -4.9218771938182563e+06  1.0085293441229980e+07  -5.2373906682030903e+06  7.9600132608872922e+06  -3.9458162543946602e+06  7.2543297051298507e+06  -5.7959090106904218e+06  5.7027924072049838e+06  -4.0225076855308637e+06  6.6977045975139895e+06  -7.7646910463906191e+06  5.9142039219549652e+06  -4.6203116955984347e+06  6.6092100584419146e+06  -7.0803549619832505e+06  7.4811579421902206e+06  -5.5070189303994132e+06  8.6508313628054392e+06  -6.3295124902730752e+06  9.6609910085178595e+06  -6.2075070458859140e+06  1.2396938692336226e+07  -1.1555422790803691e+07  1.7426075005562827e+07  4.9046400465173384e-01  0.0000000000000000e+00  5.3116671135520365e+05  -1.0037629957403181e+07  -4.5349960096917367e+06  -3.7062261681108619e+06  -5.0583659392073983e+06  -1.0761415218171827e+06  -6.5193951131042428e+06  1.6676027162248832e+06  -6.1658294910312416e+06  3.1778912438385286e+06  -7.8268378108775858e+06  5.3761450472539729e+06  -5.7966517835799530e+06  4.4387910196082275e+06  -6.1862832045869101e+06  5.1882100830306141e+06  -4.6203116856892854e+06  5.8689790735305557e+06  -7.4420908130119666e+06  6.1190967864582632e+06  -5.2758014114008537e+06  3.9521699248832357e+06  -5.6566662416784270e+06  1.9806087884453651e+06  -3.2891922645535776e+06  -1.5404469725584588e+06  -2.4318206697013732e+06  -8.2595083864006978e+06  2.9031448716833764e+06  3.5608913321935087e-01  0.0000000000000000e+00  2.1366329183284201e+07  -1.1307386289905518e+07  1.6075424554925023e+07  -5.5067198382014232e+06  1.3076022389492892e+07  -5.3382406653301548e+06  1.3066822596089847e+07  -6.8212555650562355e+06  1.2482273969782060e+07  -9.0570397164063659e+06  1.3054642983080667e+07  -7.8273922763588764e+06  7.2549947345671440e+06  -4.9188797080548983e+06  6.2502219992887983e+06  -5.2857922728877505e+06  6.6092100144115696e+06  -7.4420907854946628e+06  6.8732061906021908e+06  -5.1918948573104721e+06  5.5626948778684074e+06  -5.8057746687929351e+06  7.0656809128155932e+06  -4.6584723468494629e+06  7.6962627830483411e+06  -6.5823534913986828e+06  1.1056188881151520e+07  -1.1231786757808197e+07  1.6717375017154841e+07  2.5142269480442309e-01  0.0000000000000000e+00  1.3053429076607730e+06  -1.0895212209065631e+07  -5.7513849828665461e+06  -3.8437502422914598e+06  -8.6481871697060913e+06  1.4333956305203284e+06  -1.0363869510644889e+07  2.9996043292912426e+06  -9.5982720521296784e+06  5.0573774040122963e+06  -9.0574210066012070e+06  3.1783718084853725e+06  -3.9458925859093112e+06  2.6322120233868309e+06  -5.6686766676523313e+06  5.3042972550827982e+06  -7.0803549165141573e+06  6.1190967531931680e+06  -5.1918948513491312e+06  4.8428111646527881e+06  -5.7081762259848937e+06  5.0978058311372055e+06  -4.4350850960981799e+06  2.1282278001400274e+06  -4.0760379763187198e+06  2.4920423647325576e+05  -2.1805449020723552e+06  -8.7379506473806985e+06  5.2177166261771908e+06  1.7172508353556665e-01  0.0000000000000000e+00  2.4968535459262066e+07  -1.2990077835732419e+07  1.9280851600221861e+07  -9.5941388673989344e+06  2.1530676838305581e+07  -1.2779584953937493e+07  2.1968783725551747e+07  -1.2325027211408250e+07  1.7892367944648165e+07  -9.5985170531229097e+06  1.2482596333263217e+07  -6.1658917825710000e+06  7.9596821588551523e+06  -6.0784078348340457e+06  8.9179522893831264e+06  -6.6500949018296991e+06  7.4811578903432013e+06  -5.2758013596197171e+06  5.5626948606518628e+06  -5.7081762106648395e+06  5.7733218521559406e+06  -4.6276924034078838e+06  4.5070826945446311e+06  -4.4807761371901166e+06  6.8397023485981198e+06  -5.5385528823075565e+06  7.4779216944815665e+06  -1.0359245525341434e+07  1.7181814039204706e+07  1.1266923572674013e-01  0.0000000000000000e+00  6.2994588439865492e+05  -8.2503911878148587e+06  -1.2124334396754365e+07  6.0147154905844398e+05  -1.4811112221417969e+07  2.9222858422338967e+06  -1.3437497669538189e+07  4.1677792871477655e+06  -1.2325175115447594e+07  2.9998071937925904e+06  -6.8213020976650566e+06  1.6673913999851318e+06  -5.2371015968949990e+06  2.7018229021224082e+06  -6.0852199593088897e+06  3.1910745343219428e+06  -5.5070189288980169e+06  3.9521698717700155e+06  -5.8057746540783681e+06  5.0978058052556077e+06  -4.6276923985636411e+06  3.8529082569836243e+06  -4.2289508845121907e+06  4.0641837128557228e+06  -4.4258979416462034e+06  1.1099756255699064e+05  -2.3313364288535924e+06  -7.6600873894683439e+06  7.5531913750773761e+06  7.0338594216168115e-02  1.1029025241772487e-08  3.6875517476464540e+07  -2.2251652021061156e+07  3.1901809663147595e+07  -2.2863669498643704e+07  3.5078184729997121e+07  -1.9382704741893776e+07  2.6963083731815264e+07  -1.3437583292196609e+07  2.1968904740433503e+07  -1.0363902526126165e+07  1.3066697510866325e+07  -6.5192123481664164e+06  1.0085251589085989e+07  -5.5283353365381034e+06  9.3639837472277749e+06  -5.4556680602693344e+06  8.6508313061196823e+06  -5.6566661227316158e+06  7.0656808800348910e+06  -4.4350850506126564e+06  4.5070826876607258e+06  -4.2289508753531454e+06  4.7449688831766369e+06  -4.6033076283401549e+06  3.6583358811348802e+06  -3.4549189648979399e+06  4.0755074573659464e+06  -9.4843508036630936e+06  1.8459798236478951e+07  4.1231192556889500e-02  0.0000000000000000e+00  -6.4640703157439921e+06  -1.7317131735003039e+06  -2.0393524199350197e+07  3.6305969692690149e+06  -2.1720901625805184e+07  6.7704101777573600e+06  -1.9382751599810645e+07  2.9223548627150957e+06  -1.2779606427892802e+07  1.4333264129457283e+06  -5.3381324892658489e+06  -1.0761706489409821e+06  -4.9219780038318466e+06  2.4491867824596702e+05  -6.3998921181657771e+06  1.8729047300995672e+06  -6.3295124984765928e+06  1.9806087080475905e+06  -4.6584723724389607e+06  2.1282277666235166e+06  -4.4807761417814428e+06  4.0641836910880362e+06  -4.6033076228046091e+06  2.9732157393748304e+06  -2.9709057341384613e+06  5.3561281128279446e+05  -5.2841731573497597e+06  -4.2936890517418962e+06  1.0922419068887871e+07  2.2255570826209409e-02  0.0000000000000000e+00  6.4817531703335889e+07  -3.6021313911642894e+07  4.9141295772973336e+07  -3.3209613505248211e+07  4.0707504603241563e+07  -2.1720926915678319e+07  3.5078222531448163e+07  -1.4811126291432736e+07  2.1530641030731354e+07  -8.6481277762181293e+06  1.3076004089623408e+07  -5.0584224329347163e+06  1.2494044443884552e+07  -5.4710553908870947e+06  1.2182575276179047e+07  -4.6415090488195345e+06  9.6609909876121096e+06  -3.2891921217712793e+06  7.6962627739066044e+06  -4.0760378748816289e+06  6.8397023263679529e+06  -4.4258978905213084e+06  3.6583358762229006e+06  -2.9709057289620358e+06  1.5302588002729984e+06  -5.0694535088661974e+06  1.0940353442627403e+06  -4.6444858844899274e+06  1.9521074185650010e+07  1.0732817720972902e-02  0.0000000000000000e+00  -2.0006278682129633e+07  2.8410226227186285e+06  -3.2958986951009538e+07  1.2672869004836446e+07  -3.3209625811014593e+07  3.6306168677388360e+06  -2.286367768833