<?xml version="1.0"?>
<VTKFile type="UnstructuredGrid"  version="0.1"  >
<UnstructuredGrid>
<Piece  NumberOfPoints="961" NumberOfCells="1800">
<Points>
<DataArray  type="Float64"  NumberOfComponents="3"  format="ascii">-1 -1 0  -0.9333333333333333 -1 0  -0.8666666666666667 -1 0  -0.8 -1 0  -0.7333333333333334 -1 0  -0.6666666666666667 -1 0  -0.6 -1 0  -0.5333333333333333 -1 0  -0.4666666666666667 -1 0  -0.4 -1 0  -0.3333333333333334 -1 0  -0.2666666666666667 -1 0  -0.2 -1 0  -0.1333333333333333 -1 0  -0.06666666666666665 -1 0  0 -1 0  0.06666666666666665 -1 0  0.1333333333333333 -1 0  0.2 -1 0  0.2666666666666666 -1 0  0.3333333333333333 -1 0  0.3999999999999999 -1 0  0.4666666666666666 -1 0  0.5333333333333334 -1 0  0.6000000000000001 -1 0  0.6666666666666667 -1 0  0.7333333333333334 -1 0  0.8 -1 0  0.8666666666666667 -1 0  0.9333333333333333 -1 0  1 -1 0  -1 -0.9333333333333333 0  -0.9333333333333333 -0.9333333333333333 0  -0.8666666666666667 -0.9333333333333333 0  -0.8 -0.9333333333333333 0  -0.7333333333333334 -0.9333333333333333 0  -0.6666666666666667 -0.9333333333333333 0  -0.6 -0.9333333333333333 0  -0.5333333333333333 -0.9333333333333333 0  -0.4666666666666667 -0.9333333333333333 0  -0.4 -0.9333333333333333 0  -0.3333333333333334 -0.9333333333333333 0  -0.2666666666666667 -0.9333333333333333 0  -0.2 -0.9333333333333333 0  -0.1333333333333333 -0.9333333333333333 0  -0.06666666666666665 -0.9333333333333333 0  0 -0.9333333333333333 0  0.06666666666666665 -0.9333333333333333 0  0.1333333333333333 -0.9333333333333333 0  0.2 -0.9333333333333333 0  0.2666666666666666 -0.9333333333333333 0  0.3333333333333333 -0.9333333333333333 0  0.3999999999999999 -0.9333333333333333 0  0.4666666666666666 -0.9333333333333333 0  0.5333333333333334 -0.9333333333333333 0  0.6000000000000001 -0.9333333333333333 0  0.6666666666666667 -0.9333333333333333 0  0.7333333333333334 -0.9333333333333333 0  0.8 -0.9333333333333333 0  0.8666666666666667 -0.9333333333333333 0  0.9333333333333333 -0.9333333333333333 0  1 -0.9333333333333333 0  -1 -0.8666666666666667 0  -0.9333333333333333 -0.8666666666666667 0  -0.8666666666666667 -0.8666666666666667 0  -0.8 -0.8666666666666667 0  -0.7333333333333334 -0.8666666666666667 0  -0.6666666666666667 -0.8666666666666667 0  -0.6 -0.8666666666666667 0  -0.5333333333333333 -0.8666666666666667 0  -0.4666666666666667 -0.8666666666666667 0  -0.4 -0.8666666666666667 0  -0.3333333333333334 -0.8666666666666667 0  -0.2666666666666667 -0.8666666666666667 0  -0.2 -0.8666666666666667 0  -0.1333333333333333 -0.8666666666666667 0  -0.06666666666666665 -0.8666666666666667 0  0 -0.8666666666666667 0  0.06666666666666665 -0.8666666666666667 0  0.1333333333333333 -0.8666666666666667 0  0.2 -0.8666666666666667 0  0.2666666666666666 -0.8666666666666667 0  0.3333333333333333 -0.8666666666666667 0  0.3999999999999999 -0.8666666666666667 0  0.4666666666666666 -0.8666666666666667 0  0.5333333333333334 -0.8666666666666667 0  0.6000000000000001 -0.8666666666666667 0  0.6666666666666667 -0.8666666666666667 0  0.7333333333333334 -0.8666666666666667 0  0.8 -0.8666666666666667 0  0.8666666666666667 -0.8666666666666667 0  0.9333333333333333 -0.8666666666666667 0  1 -0.8666666666666667 0  -1 -0.8 0  -0.9333333333333333 -0.8 0  -0.8666666666666667 -0.8 0  -0.8 -0.8 0  -0.7333333333333334 -0.8 0  -0.6666666666666667 -0.8 0  -0.6 -0.8 0  -0.5333333333333333 -0.8 0  -0.4666666666666667 -0.8 0  -0.4 -0.8 0  -0.3333333333333334 -0.8 0  -0.2666666666666667 -0.8 0  -0.2 -0.8 0  -0.1333333333333333 -0.8 0  -0.06666666666666665 -0.8 0  0 -0.8 0  0.06666666666666665 -0.8 0  0.1333333333333333 -0.8 0  0.2 -0.8 0  0.2666666666666666 -0.8 0  0.3333333333333333 -0.8 0  0.3999999999999999 -0.8 0  0.4666666666666666 -0.8 0  0.5333333333333334 -0.8 0  0.6000000000000001 -0.8 0  0.6666666666666667 -0.8 0  0.7333333333333334 -0.8 0  0.8 -0.8 0  0.8666666666666667 -0.8 0  0.9333333333333333 -0.8 0  1 -0.8 0  -1 -0.7333333333333334 0  -0.9333333333333333 -0.7333333333333334 0  -0.8666666666666667 -0.7333333333333334 0  -0.8 -0.7333333333333334 0  -0.7333333333333334 -0.7333333333333334 0  -0.6666666666666667 -0.7333333333333334 0  -0.6 -0.7333333333333334 0  -0.5333333333333333 -0.7333333333333334 0  -0.4666666666666667 -0.7333333333333334 0  -0.4 -0.7333333333333334 0  -0.3333333333333334 -0.7333333333333334 0  -0.2666666666666667 -0.7333333333333334 0  -0.2 -0.7333333333333334 0  -0.1333333333333333 -0.7333333333333334 0  -0.06666666666666665 -0.7333333333333334 0  0 -0.7333333333333334 0  0.06666666666666665 -0.7333333333333334 0  0.1333333333333333 -0.7333333333333334 0  0.2 -0.7333333333333334 0  0.2666666666666666 -0.7333333333333334 0  0.3333333333333333 -0.7333333333333334 0  0.3999999999999999 -0.7333333333333334 0  0.4666666666666666 -0.7333333333333334 0  0.5333333333333334 -0.7333333333333334 0  0.6000000000000001 -0.7333333333333334 0  0.6666666666666667 -0.7333333333333334 0  0.7333333333333334 -0.7333333333333334 0  0.8 -0.7333333333333334 0  0.8666666666666667 -0.7333333333333334 0  0.9333333333333333 -0.7333333333333334 0  1 -0.7333333333333334 0  -1 -0.6666666666666667 0  -0.9333333333333333 -0.6666666666666667 0  -0.8666666666666667 -0.6666666666666667 0  -0.8 -0.6666666666666667 0  -0.7333333333333334 -0.6666666666666667 0  -0.6666666666666667 -0.6666666666666667 0  -0.6 -0.6666666666666667 0  -0.5333333333333333 -0.6666666666666667 0  -0.4666666666666667 -0.6666666666666667 0  -0.4 -0.6666666666666667 0  -0.3333333333333334 -0.6666666666666667 0  -0.2666666666666667 -0.6666666666666667 0  -0.2 -0.6666666666666667 0  -0.1333333333333333 -0.6666666666666667 0  -0.06666666666666665 -0.6666666666666667 0  0 -0.6666666666666667 0  0.06666666666666665 -0.6666666666666667 0  0.1333333333333333 -0.6666666666666667 0  0.2 -0.6666666666666667 0  0.2666666666666666 -0.6666666666666667 0  0.3333333333333333 -0.6666666666666667 0  0.3999999999999999 -0.6666666666666667 0  0.4666666666666666 -0.6666666666666667 0  0.5333333333333334 -0.6666666666666667 0  0.6000000000000001 -0.6666666666666667 0  0.6666666666666667 -0.6666666666666667 0  0.7333333333333334 -0.6666666666666667 0  0.8 -0.6666666666666667 0  0.8666666666666667 -0.6666666666666667 0  0.9333333333333333 -0.6666666666666667 0  1 -0.6666666666666667 0  -1 -0.6 0  -0.9333333333333333 -0.6 0  -0.8666666666666667 -0.6 0  -0.8 -0.6 0  -0.7333333333333334 -0.6 0  -0.6666666666666667 -0.6 0  -0.6 -0.6 0  -0.5333333333333333 -0.6 0  -0.4666666666666667 -0.6 0  -0.4 -0.6 0  -0.3333333333333334 -0.6 0  -0.2666666666666667 -0.6 0  -0.2 -0.6 0  -0.1333333333333333 -0.6 0  -0.06666666666666665 -0.6 0  0 -0.6 0  0.06666666666666665 -0.6 0  0.1333333333333333 -0.6 0  0.2 -0.6 0  0.2666666666666666 -0.6 0  0.3333333333333333 -0.6 0  0.3999999999999999 -0.6 0  0.4666666666666666 -0.6 0  0.5333333333333334 -0.6 0  0.6000000000000001 -0.6 0  0.6666666666666667 -0.6 0  0.7333333333333334 -0.6 0  0.8 -0.6 0  0.8666666666666667 -0.6 0  0.9333333333333333 -0.6 0  1 -0.6 0  -1 -0.5333333333333333 0  -0.9333333333333333 -0.5333333333333333 0  -0.8666666666666667 -0.5333333333333333 0  -0.8 -0.5333333333333333 0  -0.7333333333333334 -0.5333333333333333 0  -0.6666666666666667 -0.5333333333333333 0  -0.6 -0.5333333333333333 0  -0.5333333333333333 -0.5333333333333333 0  -0.4666666666666667 -0.5333333333333333 0  -0.4 -0.5333333333333333 0  -0.3333333333333334 -0.5333333333333333 0  -0.2666666666666667 -0.5333333333333333 0  -0.2 -0.5333333333333333 0  -0.1333333333333333 -0.5333333333333333 0  -0.06666666666666665 -0.5333333333333333 0  0 -0.5333333333333333 0  0.06666666666666665 -0.5333333333333333 0  0.1333333333333333 -0.5333333333333333 0  0.2 -0.5333333333333333 0  0.2666666666666666 -0.5333333333333333 0  0.3333333333333333 -0.5333333333333333 0  0.3999999999999999 -0.5333333333333333 0  0.4666666666666666 -0.5333333333333333 0  0.5333333333333334 -0.5333333333333333 0  0.6000000000000001 -0.5333333333333333 0  0.6666666666666667 -0.5333333333333333 0  0.7333333333333334 -0.5333333333333333 0  0.8 -0.5333333333333333 0  0.8666666666666667 -0.5333333333333333 0  0.9333333333333333 -0.5333333333333333 0  1 -0.5333333333333333 0  -1 -0.4666666666666667 0  -0.9333333333333333 -0.4666666666666667 0  -0.8666666666666667 -0.4666666666666667 0  -0.8 -0.4666666666666667 0  -0.7333333333333334 -0.4666666666666667 0  -0.6666666666666667 -0.4666666666666667 0  -0.6 -0.4666666666666667 0  -0.5333333333333333 -0.4666666666666667 0  -0.4666666666666667 -0.4666666666666667 0  -0.4 -0.4666666666666667 0  -0.3333333333333334 -0.4666666666666667 0  -0.2666666666666667 -0.4666666666666667 0  -0.2 -0.4666666666666667 0  -0.1333333333333333 -0.4666666666666667 0  -0.06666666666666665 -0.4666666666666667 0  0 -0.4666666666666667 0  0.06666666666666665 -0.4666666666666667 0  0.1333333333333333 -0.4666666666666667 0  0.2 -0.4666666666666667 0  0.2666666666666666 -0.4666666666666667 0  0.3333333333333333 -0.4666666666666667 0  0.3999999999999999 -0.4666666666666667 0  0.4666666666666666 -0.4666666666666667 0  0.5333333333333334 -0.4666666666666667 0  0.6000000000000001 -0.4666666666666667 0  0.6666666666666667 -0.4666666666666667 0  0.7333333333333334 -0.4666666666666667 0  0.8 -0.4666666666666667 0  0.8666666666666667 -0.4666666666666667 0  0.9333333333333333 -0.4666666666666667 0  1 -0.4666666666666667 0  -1 -0.4 0  -0.9333333333333333 -0.4 0  -0.8666666666666667 -0.4 0  -0.8 -0.4 0  -0.7333333333333334 -0.4 0  -0.6666666666666667 -0.4 0  -0.6 -0.4 0  -0.5333333333333333 -0.4 0  -0.4666666666666667 -0.4 0  -0.4 -0.4 0  -0.3333333333333334 -0.4 0  -0.2666666666666667 -0.4 0  -0.2 -0.4 0  -0.1333333333333333 -0.4 0  -0.06666666666666665 -0.4 0  0 -0.4 0  0.06666666666666665 -0.4 0  0.1333333333333333 -0.4 0  0.2 -0.4 0  0.2666666666666666 -0.4 0  0.3333333333333333 -0.4 0  0.3999999999999999 -0.4 0  0.4666666666666666 -0.4 0  0.5333333333333334 -0.4 0  0.6000000000000001 -0.4 0  0.6666666666666667 -0.4 0  0.7333333333333334 -0.4 0 
[...]
<PointData  Scalars="f_24"> 
<DataArray  type="Float64"  Name="f_24"  format="ascii">0.0000000000000000e+00  0.0000000000000000e+00  0.0000000000000000e+00  0.0000000000000000e+00  0.0000000000000000e+00  0.0000000000000000e+00  0.0000000000000000e+00  0.0000000000000000e+00  0.0000000000000000e+00  0.0000000000000000e+00  0.0000000000000000e+00  0.0000000000000000e+00  0.0000000000000000e+00  0.0000000000000000e+00  0.0000000000000000e+00  0.0000000000000000e+00  0.0000000000000000e+00  0.0000000000000000e+00  0.0000000000000000e+00  0.0000000000000000e+00  0.0000000000000000e+00  0.0000000000000000e+00  0.0000000000000000e+00  0.0000000000000000e+00  0.0000000000000000e+00  -4.2711044892079567e-08  0.0000000000000000e+00  -3.9159939638178403e-07  0.0000000000000000e+00  0.0000000000000000e+00  1.1275009435499420e+01  0.0000000000000000e+00  1.0311088247519223e+07  1.1280968541416615e+07  1.6415949447028993e+07  1.1856098255313979e+07  1.6227350661952900e+07  9.3070168053897787e+06  1.5456140706837010e+07  6.6462539698288264e+06  1.4474525242782159e+07  4.7938847843578877e+06  1.4127944602336183e+07  2.9386910734022637e+06  1.4716661457926139e+07  1.5501387824575235e+06  1.5381588443579068e+07  1.0645890634372884e+06  1.6342413243219141e+07  1.0146171150691638e+06  1.7894799401058633e+07  1.6198367363768362e+06  2.0783648775370702e+07  1.0304643346880189e+06  3.0380684173983384e+07  -4.7899368117529154e+06  5.2943131978381455e+07  -1.5873849381643191e+07  8.7675569987114996e+07  -9.7583006014751811e+06  1.9061476474682447e+08  9.8451851216660060e+00  0.0000000000000000e+00  1.1280968523628786e+07  1.2429965674702110e+07  5.0669912860771595e+06  2.3250077139197318e+06  -3.2200379429848325e+06  -2.9452549769515162e+06  -7.1846553646161379e+06  -5.7503617431204123e+06  -7.9880438932457091e+06  -6.7227765835693348e+06  -8.7886456912517399e+06  -6.4158533136404054e+06  -9.1151443888616581e+06  -6.8793038273665998e+06  -8.6171735739044435e+06  -7.5448601825739499e+06  -8.7240885469005983e+06  -7.8623547159064226e+06  -8.8568092504927330e+06  -8.4805607662396077e+06  -1.0131975720099960e+07  -6.2427772817270970e+06  -1.7550013847873926e+07  -8.8634458089318196e+05  -2.8671604897703968e+07  2.8101309075239585e+06  -2.4797541303671174e+07  -1.5273116941129716e+07  -9.7583076988546420e+06  8.5558669121315525e+00  -1.4736089450782126e-08  1.6415949439410128e+07  5.0669912892150665e+06  1.9134201781406079e+06  -3.8325913596897461e+06  1.3155443637506990e+06  -3.9765315471393336e+06  3.4790549322586539e+06  -1.8371885660152363e+06  6.0081421474441867e+06  -1.9062123828823715e+06  8.7584952479302883e+06  -2.2216971254984429e+06  9.7676203394806497e+06  -1.9903381470658046e+06  1.0702778070776114e+07  -2.9696259208074608e+06  1.2349075436797542e+07  -3.9242167130801789e+06  1.2829949086493023e+07  -4.7985851397008859e+06  1.5576980798000067e+07  -9.7774574940004051e+06  2.6029293353161301e+07  -1.6236551894995932e+07  4.0244898572279148e+07  -2.6222282725131035e+07  4.8137326321319170e+07  -2.4797540815563463e+07  8.7675571365755841e+07  7.3975333439526576e+00  0.0000000000000000e+00  1.1856098200115301e+07  2.3250077311715833e+06  -3.8325913648401559e+06  6.1958865365567594e+05  -3.9323124892140683e+06  4.1417801205991057e+05  -2.9827382578056115e+06  -2.0878248124433379e+05  -4.8627647840915332e+06  -2.1231955326816902e+05  -5.7692915947150365e+06  -1.6878128033853360e+06  -5.4704135164428409e+06  -2.4483133845969168e+06  -6.2129470667665824e+06  -2.2267436977387248e+06  -6.2865437977640899e+06  -3.4375775468457229e+06  -4.8897779082879899e+06  -3.5212247749315649e+06  -8.1400564252428766e+06  1.9914038148753915e+05  -1.8706822442244291e+07  2.9264135606325618e+06  -2.6748138379044853e+07  1.0631879861317171e+07  -2.6222290192054164e+07  2.8101359469801425e+06  -1.5873855323684582e+07  6.3609984096256591e+00  -6.5774744743228023e-09  1.6227350646372464e+07  -3.2200379102062718e+06  1.3155443694785039e+06  -3.9323124924633056e+06  1.1591230030211832e+06  -2.6829061927321693e+06  2.5796146088485639e+06  -4.0156991854938837e+06  5.1185459904182227e+06  -3.7046266315786815e+06  5.8705133483778900e+06  -3.0036031976989442e+06  7.5175656938392324e+06  -4.0613240606532660e+06  9.5817846003429443e+06  -4.7329320681107137e+06  9.8157820999503173e+06  -4.4347903560988037e+06  1.0236249206549395e+07  -7.4043917008751705e+06  1.7035714367465049e+07  -1.2423806976744479e+07  2.8060924045345351e+07  -1.7870225434216529e+07  3.2922892126346827e+07  -2.6748147399047777e+07  4.0244907068570279e+07  -2.8671605817314453e+07  5.2943131507199138e+07  5.4374080996814342e+00  0.0000000000000000e+00  9.3070167251210175e+06  -2.9452549279107493e+06  -3.9765315930169551e+06  4.1417802225575637e+05  -2.6829061969378544e+06  2.0059338526257966e+06  -4.1591876473146030e+06  2.9043336617608937e+06  -3.9621173659575656e+06  1.4557606196946362e+06  -3.9955987295943773e+06  1.4231844563824043e+06  -5.2888758504510187e+06  1.3743062333179286e+06  -5.3278343345116703e+06  5.3883146043275214e+04  -4.1486116846079989e+06  -1.0554620860749136e+06  -4.5466825543529894e+06  8.9453868375492026e+05  -1.0684394511340028e+07  1.9863476351660884e+06  -1.6128953817037575e+07  5.0964277881071344e+06  -1.7870247045320313e+07  2.9264302595583349e+06  -1.6236558254999431e+07  -8.8634530191663129e+05  -4.7899388341434319e+06  4.6182438647805633e+00  -3.7429276254515650e-09  1.5456140698566524e+07  -7.1846553161954638e+06  3.4790549276962089e+06  -2.9827382394307083e+06  2.5796146128474656e+06  -4.1591876518250718e+06  3.4734898847507518e+06  -3.7151665027980194e+06  3.4463300896066534e+06  -3.7409160134602180e+06  5.6233289347605789e+06  -4.6628819556029225e+06  6.9510337269632779e+06  -4.4756762225680565e+06  7.5394177045085942e+06  -4.5349698939421000e+06  8.1126336004440887e+06  -5.3637411215952924e+06  1.0485693199672757e+07  -8.5494179535805620e+06  1.7599939641193848e+07  -1.1177356013928724e+07  2.1490152571995053e+07  -1.6128991357329121e+07  2.8060954986291211e+07  -1.8706828671575945e+07  2.6029287844698858e+07  -1.7550007885330360e+07  3.0380683212970726e+07  3.8953208832587563e+00  0.0000000000000000e+00  6.6462538636825252e+06  -5.7503616738865860e+06  -1.8371886415391869e+06  -2.0878245400241623e+05  -4.0156992267986205e+06  2.9043336793492208e+06  -3.7151665102096898e+06  2.9354259199359431e+06  -3.8663675830675522e+06  4.0628092136201463e+06  -4.7494787076037386e+06  3.1758089865932623e+06  -4.4845134057310876e+06  2.5700045927603957e+06  -4.9483347434991924e+06  2.1732390393406404e+06  -4.2669211940230550e+06  1.3224230494855330e+06  -5.5739683335481938e+06  2.3603358575274842e+06  -1.0108290566595044e+07  3.1896181247628219e+06  -1.1177425979170270e+07  1.9864038920624815e+06  -1.2423819414445499e+07  1.9912713883620113e+05  -9.7774474003476854e+06  -6.2427784162771497e+06  1.0304602312252389e+06  3.2607884078053742e+00  2.0544936599487194e-08  1.4474525243478015e+07  -7.9880438225926114e+06  6.0081421315457420e+06  -4.8627647578802081e+06  5.1185460087937526e+06  -3.9621173623853303e+06  3.4463300952324341e+06  -3.8663675870059519e+06  4.6203054935477981e+06  -4.6574515159814879e+06  4.4941031548067126e+06  -4.2847890080184191e+06  6.0591638700831570e+06  -5.3936361618419457e+06  7.2260831355104027e+06  -4.9309213182876436e+06  6.4473106414351827e+06  -5.0071479942842377e+06  1.0101017156533789e+07  -7.8128265047136918e+06  1.4441683181037646e+07  -1.0108410170763362e+07  1.7600037877946455e+07  -1.0684411763130939e+07  1.7035685621220767e+07  -8.1400310045660986e+06  1.5576976575291669e+07  -1.0131979798767487e+07  2.0783651464539118e+07  2.7071297822824292e+00  0.0000000000000000e+00  4.7938846570360586e+06  -6.7227765004892126e+06  -1.9062125059535904e+06  -2.1231948366606777e+05  -3.7046267130950480e+06  1.4557606465590880e+06  -3.7409160502027450e+06  4.0628092345604263e+06  -4.6574515283866413e+06  3.9134141784810284e+06  -4.2136405482491339e+06  4.9578964510381175e+06  -5.7400975851588463e+06  4.2993294864593549e+06  -4.5962590240075011e+06  2.1334723115048963e+06  -3.1998135576389376e+06  2.5741733327549389e+06  -7.3470255461481521e+06  4.0860824051439161e+06  -7.8130254036814813e+06  2.3605004781305101e+06  -8.5494453729249872e+06  8.9448307488119823e+05  -7.4043445100617949e+06  -3.5212326347248713e+06  -4.7985980534805739e+06  -8.4805519171810020e+06  1.6198340369850204e+06  2.2271623576295161e+00  3.9598199541539497e-09  1.4127944615450405e+07  -8.7886456151244137e+06  8.7584952490007151e+06  -5.7692915605450422e+06  5.8705133570010802e+06  -3.9955987094069645e+06  5.6233289615820535e+06  -4.7494787196396440e+06  4.4941031688037124e+06  -4.2136405530967088e+06  5.5700727999589052e+06  -6.0323188198983716e+06  5.3578882859200761e+06  -4.2848730880627641e+06  5.0674336845626719e+06  -3.9866732806005888e+06  5.8805739896530453e+06  -6.3450978314628182e+06  1.0580422622456525e+07  -7.3473345038488647e+06  1.0101278598138282e+07  -5.5740060774393026e+06  1.0485592145248758e+07  -4.5465949306314718e+06  1.0236234675683746e+07  -4.8898013865639791e+06  1.2829967022112565e+07  -8.8568102549904678e+06  1.7894796368550844e+07  1.8140376600539749e+00  0.0000000000000000e+00  2.9386909081974002e+06  -6.4158531975079710e+06  -2.2216973023938355e+06  -1.6878127138782318e+06  -3.0036033115726276e+06  1.4231845206543873e+06  -4.6628820515863877e+06  3.1758090294480086e+06  -4.2847890498960968e+06  4.9578964779670993e+06  -6.0323188421865655e+06  4.7576321605757102e+06  -3.7458202729429263e+06  4.2062979893522682e+06  -5.0147609300208222e+06  3.5974672019905853e+06  -4.6981243555657500e+06  4.3586831995745730e+06  -6.3455475969151221e+06  2.5745631429590001e+06  -5.0071990280718645e+06  1.3222522511871487e+06  -5.3635937270501610e+06  -1.0554851595442435e+06  -4.4348369606491253e+06  -3.4375420101193581e+06  -3.9242207304032254e+06  -7.8623630087306770e+06  1.0146195850888733e+06  1.4612412228407246e+00  2.5294402938554277e-06  1.4716661499356404e+07  -9.1151443099224418e+06  9.7676203437252678e+06  -5.4704134561456749e+06  7.5175657134268582e+06  -5.2888758451225478e+06  6.9510337735900385e+06  -4.4845134072935749e+06  6.0591639122787733e+06  -5.7400976220984310e+06  5.3578883216440026e+06  -3.7458202809951380e+06  4.7951077145390473e+06  -6.2939312619758425e+06  5.4288004083128609e+06  -3.2596002752068383e+06  4.6226516589154555e+06  -4.6987266025035484e+06  5.8811133768590251e+06  -3.1998756245175675e+06  6.4470426055451427e+06  -4.2666870872958256e+06  8.1125999864859069e+06  -4.1486934512339318e+06  9.8158458864168562e+06  -6.2865482760898508e+06  1.2349055980534289e+07  -8.7240774763276689e+06  1.6342413554306034e+07  1.1625926704473419e+00  0.0000000000000000e+00  1.5501385615642541e+06  -6.8793036863768538e+06  -1.9903383676389826e+06  -2.4483132629987258e+06  -4.0613242514479491e+06  1.3743063532017055e+06  -4.4756763692850545e+06  2.5700046748234350e+06  -5.3936362871985342e+06  4.2993295661440035e+06  -4.2848731487917732e+06  4.2062980209929487e+06  -6.2939313026952595e+06  5.4065522719848733e+06  -1.9769336234395320e+06  6.0830444880867435e+05  -3.2603374571710937e+06  3.5981532092522546e+06  -3.9867444610514538e+06  2.1330863275152142e+06  -4.9305799845005190e+06  2.1731956980156284e+06  -4.5351073540144367e+06  5.3990551349848720e+04  -4.7329397222793233e+06  -2.2267807729145410e+06  -2.9696050623413953e+06  -7.5448581606975403e+06  1.0645825040511470e+06  9.1224570168504937e-01  -3.7488288532471349e-09  1.5381588513262723e+07  -8.6171734702501409e+06  1.0702778086763518e+07  -6.2129470158360805e+06  9.5817846664564833e+06  -5.3278343370260131e+06  7.5394177735668672e+06  -4.9483347767709345e+06  7.2260832404328249e+06  -4.5962590766845793e+06  5.0674337622551760e+06  -5.0147610192570537e+06  5.4288005253916616e+06  -1.9769336728135101e+06  -2.0202519865129801e+05  -1.9777505705980803e+06  5.4295956908646841e+06  -5.0148366218005214e+06  5.0669282145408159e+06  -4.5958010103488052e+06  7.2260329166156780e+06  -4.9485450996223297e+06  7.5395837848752486e+06  -5.3278421790442802e+06  9.5817187593668737e+06  -6.2129072215921041e+06  1.0702781903755466e+07  -8.6171877869401146e+06  1.5381593311940109e+07  7.0468808971871377e-01  0.0000000000000000e+00  1.0645887712842673e+06  -7.5448600039777244e+06  -2.9696262371054739e+06  -2.2267434958552318e+06  -4.7329323572647329e+06  5.3883320395165021e+04  -4.5349701347055053e+06  2.1732392210385520e+06  -4.9309215538366158e+06  2.1334724666720494e+06  -3.9866734819407826e+06  3.5974673833416714e+06  -3.2596004179974128e+06  6.0830444877890695e+05  -1.9777505212160307e+06  5.4073881640564576e+06  -6.2940088099214705e+06  4.2057014150696239e+06  -4.2843143070037896e+06  4.2992768748719124e+06  -5.3939308122851225e+06  2.5702400353796599e+06  -4.4756830013118302e+06  1.3741998010149784e+06  -4.0612593815508699e+06  -2.4483051768994904e+06  -1.9903679702796238e+06  -6.8792917862816593e+06  1.5501401929640805e+06  5.3474168206684658e-01  -3.8516795477913417e-09  1.6342413352777259e+07  -8.7240884342657197e+06  1.2349075513834978e+07  -6.2865437742885817e+06  9.8157822141247615e+06  -4.1486117115117651e+06  8.1126337563646575e+06  -4.2669212992759626e+06  6.4473108166766409e+06  -3.1998136545597492e+06  5.8805741520358883e+06  -4.6981244389682282e+06  4.6226516588401096e+06  -3.2603373142862646e+06  5.4295955737964269e+06  -6.2940087691975972e+06  4.7944767979277866e+06  -3.7452019439043091e+06  5.3578362699178690e+06  -5.7404680598984500e+06  6.0594670501449183e+06  -4.4845143316673748e+06  6.9508762366893673e+06  -5.2887778040137356e+06  7.5175803637996027e+06  -5.4704635134225264e+06  9.7676414495483004e+06  -9.1151372248671427e+06  1.4716653638047336e+07  3.9756240949590993e-01  0.0000000000000000e+00  1.0146166920446922e+06  -7.8623544402013458e+06  -3.9242171858742712e+06  -3.4375772562297550e+06  -4.4347907602396263e+06  -1.0554618185288527e+06  -5.3637414972179737e+06  1.3224232950377227e+06  -5.0071482648846246e+06  2.5741734687808207e+06  -6.3450979936761400e+06  4.3586831995284073e+06  -4.6987265189607237e+06  3.5981530277932687e+06  -5.0148365326188691e+06  4.2057013834108328e+06  -3.7452019358598068e+06  4.7575808487529978e+06  -6.0327354119820427e+06  4.9582498935567541e+06  -4.2847828273451664e+06  3.1755990245793201e+06  -4.6627492976102382e+06  1.4232092334493690e+06  -3.0036819151662462e+06  -1.6877788662658678e+06  -2.2216839348218441e+06  -6.4158719085014332e+06  2.9386946744703362e+06  2.8864024154878520e-01  -4.1149278689273980e-09  1.7894799587554190e+07  -8.8568091267877389e+06  1.2829949216452954e+07  -4.8897778682006337e+06  1.0236249358309241e+07  -4.5466825852519358e+06  1.0485693368169980e+07  -5.5739683458091579e+06  1.0101017225608148e+07  -7.3470254908453738e+06  1.0580422622346487e+07  -6.3455474346630285e+06  5.8811132144113425e+06  -3.9867442595667215e+06  5.0669281369641777e+06  -4.2843142462167982e+06  5.3578362342211287e+06  -6.0327353896874469e+06  5.5704448372893343e+06  -4.2136287442378970e+06  4.4938526386397015e+06  -4.7493155341755841e+06  5.6233654009772837e+06  -3.9957085148262898e+06  5.8705613401226252e+06  -5.7692677401941465e+06  8.7584614423934333e+06  -8.7886365723435096e+06  1.4127949744249336e+07  2.0379927548783588e-01  0.0000000000000000e+00  1.6198361064756964e+06  -8.4805603884522468e+06  -4.7985857541429922e+06  -3.5212244514426501e+06  -7.4043921781400042e+06  8.9453893320945383e+05  -8.5494182825155798e+06  2.3603359482791633e+06  -7.8128266568291262e+06  4.0860824047153364e+06  -7.3473345586642055e+06  2.5745630069097974e+06  -3.1998755276667802e+06  2.1330861721216887e+06  -4.5958009578791345e+06  4.2992767950543622e+06  -5.7404680230292473e+06  4.9582498665966615e+06  -4.2136287393949581e+06  3.9131483183767814e+06  -4.6572709411975555e+06  4.0628557279099692e+06  -3.7410546404706580e+06  1.4558222714153060e+06  -3.7045916685281089e+06  -2.1237054316598209e+05  -1.9061995989825204e+06  -6.7227634050810896e+06  4.7938750221484341e+06  1.3919764735184476e-01  0.0000000000000000e+00  2.0783649007821269e+07  -1.0131975459385743e+07  1.5576980901891964e+07  -8.1400562881249264e+06  1.7035714504324742e+07  -1.0684394432890372e+07  1.7599939712762937e+07  -1.0108290424176019e+07  1.4441683180809727e+07  -7.8130252507742634e+06  1.0101278528362921e+07  -5.0071987574271588e+06  6.4470424305693209e+06  -4.9305797485603299e+06  7.2260328120477097e+06  -5.3939306866633845e+06  6.0594670081056133e+06  -4.2847827853836091e+06  4.4938526246761372e+06  -4.6572709287890224e+06  4.6203559713150375e+06  -3.8665231695773900e+06  3.4464013973534140e+06  -3.9620709118341822e+06  5.1184773642345704e+06  -4.8627469538919311e+06  6.0081642629703237e+06  -7.9880628649724014e+06  1.4474527487820512e+07  9.1327607035141783e-02  0.0000000000000000e+00  1.0304634611777747e+06  -6.2427768370586177e+06  -9.7774582552625537e+06  1.9914069605475891e+05  -1.2423807492678970e+07  1.9863477881739438e+06  -1.1177356292697906e+07  3.1896181239675009e+06  -1.0108410312857291e+07  2.3605003870493472e+06  -5.5740060643968619e+06  1.3222520054243056e+06  -4.2666869826058904e+06  2.1731955156121519e+06  -4.9485450669728015e+06  2.5702399528231458e+06  -4.4845143304355908e+06  3.1755989815348657e+06  -4.7493155222371891e+06  4.0628557069353960e+06  -3.8665231656422564e+06  2.9355007487288611e+06  -3.7151132953454633e+06  2.9042519208544674e+06  -4.0156784485152629e+06  -2.0875048365351500e+05  -1.8372187865880560e+06  -5.7503580510066841e+06  6.6462605963118058e+06  5.7015356355315627e-02  0.0000000000000000e+00  3.0380684342304535e+07  -1.7550013345745251e+07  2.6029293491474185e+07  -1.8706822234508611e+07  2.8060924197822087e+07  -1.6128953596301688e+07  2.1490152570245177e+07  -1.1177425697069984e+07  1.7600037805523552e+07  -8.5494450443320312e+06  1.0485591976052059e+07  -5.3635933508348912e+06  8.1125998316581082e+06  -4.5351071119898297e+06  7.5395837169579370e+06  -4.4756828536870824e+06  6.9508761907216143e+06  -4.6627492012102138e+06  5.6233653743888289e+06  -3.7410546036147713e+06  3.4464013917636173e+06  -3.7151132879304485e+06  3.4734031970650712e+06  -4.1591649459866327e+06  2.5796539662904339e+06  -2.9827767692721426e+06  3.4790583541907840e+06  -7.1846397950569186e+06  1.5456132503486464e+07  3.3421355129177883e-02  0.0000000000000000e+00  -4.7899381071343115e+06  -8.8634392630395433e+05  -1.6236552916120008e+07  2.9264138306042994e+06  -1.7870225982596703e+07  5.0964277890657773e+06  -1.6128991578610163e+07  1.9864037350774901e+06  -1.0684411839337712e+07  8.9448282654077676e+05  -4.5465948994083237e+06  -1.0554854284975012e+06  -4.1486934264852535e+06  5.3990374658929984e+04  -5.3278421786686685e+06  1.3741996793903599e+06  -5.2887778106385861e+06  1.4232091682960943e+06  -3.9957085355504151e+06  1.4558222442623333e+06  -3.9620709155380786e+06  2.9042519032269721e+06  -4.1591649414797975e+06  2.0059760410612994e+06  -2.6829500292524747e+06  4.1418134916758834e+05  -3.9765097676637610e+06  -2.9452691534157651e+06  9.3070158656505477e+06  1.8040015096799058e-02  0.0000000000000000e+00  5.2943131983714290e+07  -2.8671604112871379e+07  4.0244898819402292e+07  -2.6748137926877651e+07  3.2922892116513640e+07  -1.7870246482181326e+07  2.8060954839029882e+07  -1.2423818897647068e+07  1.7035685479222856e+07  -7.4043440347298235e+06  1.0236234524694799e+07  -4.4348365531687569e+06  9.8158457766945083e+06  -4.7329394284999706e+06  9.5817186974359639e+06  -4.0612591873075343e+06  7.5175803468359038e+06  -3.0036817994449632e+06  5.8705613327004025e+06  -3.7045915863078786e+06  5.1184773462226698e+06  -4.0156784070536420e+06  2.5796539623354622e+06  -2.6829500250430345e+06  1.1591261918272669e+06  -3.9322863922211733e+06  1.3155255217391308e+06  -3.2200390897771860e+06  1.6227357542574700e+07  8.6998529594902851e-03  0.0000000000000000e+00  -1.5873851605564211e+07  2.8101317984321211e+06  -2.6222283827133045e+07  1.0631879847656932e+07  -2.6748147901760973e+07  2.9264299599437616e+06  -1.870