<?xml version="1.0"?>
<VTKFile type="UnstructuredGrid"  version="0.1"  >
<UnstructuredGrid>
<Piece  NumberOfPoints="961" NumberOfCells="1800">
<Points>
<DataArray  type="Float64"  NumberOfComponents="3"  format="ascii">-1 -1 0  -0.9333333333333333 -1 0  -0.8666666666666667 -1 0  -0.8 -1 0  -0.7333333333333334 -1 0  -0.6666666666666667 -1 0  -0.6 -1 0  -0.5333333333333333 -1 0  -0.4666666666666667 -1 0  -0.4 -1 0  -0.3333333333333334 -1 0  -0.2666666666666667 -1 0  -0.2 -1 0  -0.1333333333333333 -1 0  -0.06666666666666665 -1 0  0 -1 0  0.06666666666666665 -1 0  0.1333333333333333 -1 0  0.2 -1 0  0.2666666666666666 -1 0  0.3333333333333333 -1 0  0.3999999999999999 -1 0  0.4666666666666666 -1 0  0.5333333333333334 -1 0  0.6000000000000001 -1 0  0.6666666666666667 -1 0  0.7333333333333334 -1 0  0.8 -1 0  0.8666666666666667 -1 0  0.9333333333333333 -1 0  1 -1 0  -1 -0.9333333333333333 0  -0.9333333333333333 -0.9333333333333333 0  -0.8666666666666667 -0.9333333333333333 0  -0.8 -0.9333333333333333 0  -0.7333333333333334 -0.9333333333333333 0  -0.6666666666666667 -0.9333333333333333 0  -0.6 -0.9333333333333333 0  -0.5333333333333333 -0.9333333333333333 0  -0.4666666666666667 -0.9333333333333333 0  -0.4 -0.9333333333333333 0  -0.3333333333333334 -0.9333333333333333 0  -0.2666666666666667 -0.9333333333333333 0  -0.2 -0.9333333333333333 0  -0.1333333333333333 -0.9333333333333333 0  -0.06666666666666665 -0.9333333333333333 0  0 -0.9333333333333333 0  0.06666666666666665 -0.9333333333333333 0  0.1333333333333333 -0.9333333333333333 0  0.2 -0.9333333333333333 0  0.2666666666666666 -0.9333333333333333 0  0.3333333333333333 -0.9333333333333333 0  0.3999999999999999 -0.9333333333333333 0  0.4666666666666666 -0.9333333333333333 0  0.5333333333333334 -0.9333333333333333 0  0.6000000000000001 -0.9333333333333333 0  0.6666666666666667 -0.9333333333333333 0  0.7333333333333334 -0.9333333333333333 0  0.8 -0.9333333333333333 0  0.8666666666666667 -0.9333333333333333 0  0.9333333333333333 -0.9333333333333333 0  1 -0.9333333333333333 0  -1 -0.8666666666666667 0  -0.9333333333333333 -0.8666666666666667 0  -0.8666666666666667 -0.8666666666666667 0  -0.8 -0.8666666666666667 0  -0.7333333333333334 -0.8666666666666667 0  -0.6666666666666667 -0.8666666666666667 0  -0.6 -0.8666666666666667 0  -0.5333333333333333 -0.8666666666666667 0  -0.4666666666666667 -0.8666666666666667 0  -0.4 -0.8666666666666667 0  -0.3333333333333334 -0.8666666666666667 0  -0.2666666666666667 -0.8666666666666667 0  -0.2 -0.8666666666666667 0  -0.1333333333333333 -0.8666666666666667 0  -0.06666666666666665 -0.8666666666666667 0  0 -0.8666666666666667 0  0.06666666666666665 -0.8666666666666667 0  0.1333333333333333 -0.8666666666666667 0  0.2 -0.8666666666666667 0  0.2666666666666666 -0.8666666666666667 0  0.3333333333333333 -0.8666666666666667 0  0.3999999999999999 -0.8666666666666667 0  0.4666666666666666 -0.8666666666666667 0  0.5333333333333334 -0.8666666666666667 0  0.6000000000000001 -0.8666666666666667 0  0.6666666666666667 -0.8666666666666667 0  0.7333333333333334 -0.8666666666666667 0  0.8 -0.8666666666666667 0  0.8666666666666667 -0.8666666666666667 0  0.9333333333333333 -0.8666666666666667 0  1 -0.8666666666666667 0  -1 -0.8 0  -0.9333333333333333 -0.8 0  -0.8666666666666667 -0.8 0  -0.8 -0.8 0  -0.7333333333333334 -0.8 0  -0.6666666666666667 -0.8 0  -0.6 -0.8 0  -0.5333333333333333 -0.8 0  -0.4666666666666667 -0.8 0  -0.4 -0.8 0  -0.3333333333333334 -0.8 0  -0.2666666666666667 -0.8 0  -0.2 -0.8 0  -0.1333333333333333 -0.8 0  -0.06666666666666665 -0.8 0  0 -0.8 0  0.06666666666666665 -0.8 0  0.1333333333333333 -0.8 0  0.2 -0.8 0  0.2666666666666666 -0.8 0  0.3333333333333333 -0.8 0  0.3999999999999999 -0.8 0  0.4666666666666666 -0.8 0  0.5333333333333334 -0.8 0  0.6000000000000001 -0.8 0  0.6666666666666667 -0.8 0  0.7333333333333334 -0.8 0  0.8 -0.8 0  0.8666666666666667 -0.8 0  0.9333333333333333 -0.8 0  1 -0.8 0  -1 -0.7333333333333334 0  -0.9333333333333333 -0.7333333333333334 0  -0.8666666666666667 -0.7333333333333334 0  -0.8 -0.7333333333333334 0  -0.7333333333333334 -0.7333333333333334 0  -0.6666666666666667 -0.7333333333333334 0  -0.6 -0.7333333333333334 0  -0.5333333333333333 -0.7333333333333334 0  -0.4666666666666667 -0.7333333333333334 0  -0.4 -0.7333333333333334 0  -0.3333333333333334 -0.7333333333333334 0  -0.2666666666666667 -0.7333333333333334 0  -0.2 -0.7333333333333334 0  -0.1333333333333333 -0.7333333333333334 0  -0.06666666666666665 -0.7333333333333334 0  0 -0.7333333333333334 0  0.06666666666666665 -0.7333333333333334 0  0.1333333333333333 -0.7333333333333334 0  0.2 -0.7333333333333334 0  0.2666666666666666 -0.7333333333333334 0  0.3333333333333333 -0.7333333333333334 0  0.3999999999999999 -0.7333333333333334 0  0.4666666666666666 -0.7333333333333334 0  0.5333333333333334 -0.7333333333333334 0  0.6000000000000001 -0.7333333333333334 0  0.6666666666666667 -0.7333333333333334 0  0.7333333333333334 -0.7333333333333334 0  0.8 -0.7333333333333334 0  0.8666666666666667 -0.7333333333333334 0  0.9333333333333333 -0.7333333333333334 0  1 -0.7333333333333334 0  -1 -0.6666666666666667 0  -0.9333333333333333 -0.6666666666666667 0  -0.8666666666666667 -0.6666666666666667 0  -0.8 -0.6666666666666667 0  -0.7333333333333334 -0.6666666666666667 0  -0.6666666666666667 -0.6666666666666667 0  -0.6 -0.6666666666666667 0  -0.5333333333333333 -0.6666666666666667 0  -0.4666666666666667 -0.6666666666666667 0  -0.4 -0.6666666666666667 0  -0.3333333333333334 -0.6666666666666667 0  -0.2666666666666667 -0.6666666666666667 0  -0.2 -0.6666666666666667 0  -0.1333333333333333 -0.6666666666666667 0  -0.06666666666666665 -0.6666666666666667 0  0 -0.6666666666666667 0  0.06666666666666665 -0.6666666666666667 0  0.1333333333333333 -0.6666666666666667 0  0.2 -0.6666666666666667 0  0.2666666666666666 -0.6666666666666667 0  0.3333333333333333 -0.6666666666666667 0  0.3999999999999999 -0.6666666666666667 0  0.4666666666666666 -0.6666666666666667 0  0.5333333333333334 -0.6666666666666667 0  0.6000000000000001 -0.6666666666666667 0  0.6666666666666667 -0.6666666666666667 0  0.7333333333333334 -0.6666666666666667 0  0.8 -0.6666666666666667 0  0.8666666666666667 -0.6666666666666667 0  0.9333333333333333 -0.6666666666666667 0  1 -0.6666666666666667 0  -1 -0.6 0  -0.9333333333333333 -0.6 0  -0.8666666666666667 -0.6 0  -0.8 -0.6 0  -0.7333333333333334 -0.6 0  -0.6666666666666667 -0.6 0  -0.6 -0.6 0  -0.5333333333333333 -0.6 0  -0.4666666666666667 -0.6 0  -0.4 -0.6 0  -0.3333333333333334 -0.6 0  -0.2666666666666667 -0.6 0  -0.2 -0.6 0  -0.1333333333333333 -0.6 0  -0.06666666666666665 -0.6 0  0 -0.6 0  0.06666666666666665 -0.6 0  0.1333333333333333 -0.6 0  0.2 -0.6 0  0.2666666666666666 -0.6 0  0.3333333333333333 -0.6 0  0.3999999999999999 -0.6 0  0.4666666666666666 -0.6 0  0.5333333333333334 -0.6 0  0.6000000000000001 -0.6 0  0.6666666666666667 -0.6 0  0.7333333333333334 -0.6 0  0.8 -0.6 0  0.8666666666666667 -0.6 0  0.9333333333333333 -0.6 0  1 -0.6 0  -1 -0.5333333333333333 0  -0.9333333333333333 -0.5333333333333333 0  -0.8666666666666667 -0.5333333333333333 0  -0.8 -0.5333333333333333 0  -0.7333333333333334 -0.5333333333333333 0  -0.6666666666666667 -0.5333333333333333 0  -0.6 -0.5333333333333333 0  -0.5333333333333333 -0.5333333333333333 0  -0.4666666666666667 -0.5333333333333333 0  -0.4 -0.5333333333333333 0  -0.3333333333333334 -0.5333333333333333 0  -0.2666666666666667 -0.5333333333333333 0  -0.2 -0.5333333333333333 0  -0.1333333333333333 -0.5333333333333333 0  -0.06666666666666665 -0.5333333333333333 0  0 -0.5333333333333333 0  0.06666666666666665 -0.5333333333333333 0  0.1333333333333333 -0.5333333333333333 0  0.2 -0.5333333333333333 0  0.2666666666666666 -0.5333333333333333 0  0.3333333333333333 -0.5333333333333333 0  0.3999999999999999 -0.5333333333333333 0  0.4666666666666666 -0.5333333333333333 0  0.5333333333333334 -0.5333333333333333 0  0.6000000000000001 -0.5333333333333333 0  0.6666666666666667 -0.5333333333333333 0  0.7333333333333334 -0.5333333333333333 0  0.8 -0.5333333333333333 0  0.8666666666666667 -0.5333333333333333 0  0.9333333333333333 -0.5333333333333333 0  1 -0.5333333333333333 0  -1 -0.4666666666666667 0  -0.9333333333333333 -0.4666666666666667 0  -0.8666666666666667 -0.4666666666666667 0  -0.8 -0.4666666666666667 0  -0.7333333333333334 -0.4666666666666667 0  -0.6666666666666667 -0.4666666666666667 0  -0.6 -0.4666666666666667 0  -0.5333333333333333 -0.4666666666666667 0  -0.4666666666666667 -0.4666666666666667 0  -0.4 -0.4666666666666667 0  -0.3333333333333334 -0.4666666666666667 0  -0.2666666666666667 -0.4666666666666667 0  -0.2 -0.4666666666666667 0  -0.1333333333333333 -0.4666666666666667 0  -0.06666666666666665 -0.4666666666666667 0  0 -0.4666666666666667 0  0.06666666666666665 -0.4666666666666667 0  0.1333333333333333 -0.4666666666666667 0  0.2 -0.4666666666666667 0  0.2666666666666666 -0.4666666666666667 0  0.3333333333333333 -0.4666666666666667 0  0.3999999999999999 -0.4666666666666667 0  0.4666666666666666 -0.4666666666666667 0  0.5333333333333334 -0.4666666666666667 0  0.6000000000000001 -0.4666666666666667 0  0.6666666666666667 -0.4666666666666667 0  0.7333333333333334 -0.4666666666666667 0  0.8 -0.4666666666666667 0  0.8666666666666667 -0.4666666666666667 0  0.9333333333333333 -0.4666666666666667 0  1 -0.4666666666666667 0  -1 -0.4 0  -0.9333333333333333 -0.4 0  -0.8666666666666667 -0.4 0  -0.8 -0.4 0  -0.7333333333333334 -0.4 0  -0.6666666666666667 -0.4 0  -0.6 -0.4 0  -0.5333333333333333 -0.4 0  -0.4666666666666667 -0.4 0  -0.4 -0.4 0  -0.3333333333333334 -0.4 0  -0.2666666666666667 -0.4 0  -0.2 -0.4 0  -0.1333333333333333 -0.4 0  -0.06666666666666665 -0.4 0  0 -0.4 0  0.06666666666666665 -0.4 0  0.1333333333333333 -0.4 0  0.2 -0.4 0  0.2666666666666666 -0.4 0  0.3333333333333333 -0.4 0  0.3999999999999999 -0.4 0  0.4666666666666666 -0.4 0  0.5333333333333334 -0.4 0  0.6000000000000001 -0.4 0  0.6666666666666667 -0.4 0  0.7333333333333334 -0.4 0 
[...]
<PointData  Scalars="f_24"> 
<DataArray  type="Float64"  Name="f_24"  format="ascii">0.0000000000000000e+00  0.0000000000000000e+00  0.0000000000000000e+00  0.0000000000000000e+00  0.0000000000000000e+00  0.0000000000000000e+00  0.0000000000000000e+00  0.0000000000000000e+00  0.0000000000000000e+00  0.0000000000000000e+00  0.0000000000000000e+00  0.0000000000000000e+00  0.0000000000000000e+00  0.0000000000000000e+00  0.0000000000000000e+00  0.0000000000000000e+00  0.0000000000000000e+00  0.0000000000000000e+00  0.0000000000000000e+00  0.0000000000000000e+00  0.0000000000000000e+00  0.0000000000000000e+00  0.0000000000000000e+00  0.0000000000000000e+00  0.0000000000000000e+00  -1.5655586867034263e-07  0.0000000000000000e+00  -2.4474962273861502e-08  0.0000000000000000e+00  0.0000000000000000e+00  1.0941782547397700e+01  0.0000000000000000e+00  1.0009238610739101e+07  1.0953174354362682e+07  1.5938871929502238e+07  1.1516013160556985e+07  1.5760020136274923e+07  9.0458944125898294e+06  1.5014696381808506e+07  6.4663546132966010e+06  1.4064212308962790e+07  4.6704284892648356e+06  1.3729199547706870e+07  2.8710575215960722e+06  1.4301223557789011e+07  1.5239888993214811e+06  1.4946711780478135e+07  1.0527759518127537e+06  1.5878906025657969e+07  1.0038134637456492e+06  1.7384694917221993e+07  1.5901490065423013e+06  2.0186855770108704e+07  1.0165281475836316e+06  2.9498194116319750e+07  -4.6343658697100775e+06  5.1390830180425763e+07  -1.5394225851728322e+07  8.5092694112830594e+07  -9.4640750893450789e+06  1.8498435035188764e+08  9.5542159282790031e+00  0.0000000000000000e+00  1.0953174337103302e+07  1.2073107709709097e+07  4.9316352819791446e+06  2.2734528496703324e+06  -3.1060370204007421e+06  -2.8386507235662136e+06  -6.9527969791603023e+06  -5.5614800381243536e+06  -7.7339636577587752e+06  -6.5071839534367044e+06  -8.5131007935577054e+06  -6.2114177036974421e+06  -8.8317128310664278e+06  -6.6624556451199250e+06  -8.3491672240333920e+06  -7.3084263964659227e+06  -8.4523828262593988e+06  -7.6154238790040389e+06  -8.5795880488067325e+06  -8.2134374808244975e+06  -9.8150198707635198e+06  -6.0398742329125535e+06  -1.7012355923134357e+07  -8.4108607454484422e+05  -2.7805793159333222e+07  2.7440139150783503e+06  -2.4050291704941534e+07  -1.4811072658357006e+07  -9.4640819769683685e+06  8.3030028299310317e+00  -1.2468998766046413e-08  1.5938871922114376e+07  4.9316352850271100e+06  1.8750381370306097e+06  -3.7000288871975592e+06  1.2947937731892418e+06  -3.8437169529693387e+06  3.3876479340014337e+06  -1.7757878469457126e+06  5.8333882871360509e+06  -1.8509905087362363e+06  8.4951677496755254e+06  -2.1631832204284412e+06  9.4698719624911472e+06  -1.9417523778176212e+06  1.0375832286758276e+07  -2.8921302536883336e+06  1.1974966146592639e+07  -3.8155083999956893e+06  1.2446106093450163e+07  -4.6581686177129401e+06  1.5119030581621842e+07  -9.4819324969183039e+06  2.5270764567481488e+07  -1.5742177876243373e+07  3.9072849599573418e+07  -2.5428666252914809e+07  4.6732462479077421e+07  -2.4050291231261838e+07  8.5092695450721279e+07  7.1789036637160910e+00  0.0000000000000000e+00  1.1516013106998216e+07  2.2734528664179076e+06  -3.7000288921929565e+06  6.1823025224287389e+05  -3.8047153432723656e+06  4.0599139742031624e+05  -2.8982849582017460e+06  -2.1354356323115563e+05  -4.7361580504091354e+06  -2.2806444961804288e+05  -5.6244820475942269e+06  -1.6662036778474976e+06  -5.3386792890737597e+06  -2.4068005029803044e+06  -6.0604433127456307e+06  -2.1917091535955626e+06  -6.1305587226761319e+06  -3.3640853776825285e+06  -4.7707825996023575e+06  -3.4390337114851959e+06  -7.9165377260418953e+06  1.8222638467750704e+05  -1.8157966065356921e+07  2.8434252397230030e+06  -2.5947003914276894e+07  1.0333784074450282e+07  -2.5428673499160245e+07  2.7440188055905085e+06  -1.5394231618164062e+07  6.1730024955303850e+00  -7.0936194132812847e-09  1.5760020121166080e+07  -3.1060369885836360e+06  1.2947937787521128e+06  -3.8047153464246546e+06  1.1261488399203660e+06  -2.6131141983748828e+06  2.4843098896543412e+06  -3.9234770072843954e+06  4.9357525904863793e+06  -3.6296893263085880e+06  5.6609293651931752e+06  -2.9514923533237437e+06  7.2586624319927059e+06  -3.9779114337426326e+06  9.2620842670469787e+06  -4.6295504933881219e+06  9.4891952865115404e+06  -4.3400361684798403e+06  9.8980767583266888e+06  -7.2196301273799641e+06  1.6501189092562661e+07  -1.2082732323716586e+07  2.7212700350019984e+07  -1.7351731520757768e+07  3.1950678904933810e+07  -2.5947012667699296e+07  3.9072857844757028e+07  -2.7805794051772483e+07  5.1390829723159589e+07  5.2767084044163299e+00  0.0000000000000000e+00  9.0458943347060867e+06  -2.8386506759667513e+06  -3.8437169974865615e+06  4.0599140731538186e+05  -2.6131142024564310e+06  1.9250494637290500e+06  -4.0664812404245380e+06  2.7835095992588447e+06  -3.8816117306335485e+06  1.3766565985854880e+06  -3.9120045518748183e+06  1.3485147046421121e+06  -5.1635392447417239e+06  1.3038206965792838e+06  -5.1998421891036499e+06  2.2501442083200858e+04  -4.0568045673159356e+06  -1.0565995438672085e+06  -4.4463972269048356e+06  8.3256070548718551e+05  -1.0404575201911664e+07  1.8933184752119065e+06  -1.5681951562554814e+07  4.9244687898033895e+06  -1.7351752493156798e+07  2.8434414451199342e+06  -1.5742184048285395e+07  -8.4108677426727966e+05  -4.6343678323418889e+06  4.4817541314140987e+00  -1.2476425418171884e-09  1.5014696373796133e+07  -6.9527969321626015e+06  3.3876479295778973e+06  -2.8982849403703781e+06  2.4843098935341397e+06  -4.0664812448024871e+06  3.3351335481519559e+06  -3.6417028250470459e+06  3.3106107194067426e+06  -3.6603709630139521e+06  5.4311031351811774e+06  -4.5477076372612435e+06  6.7254626380576612e+06  -4.3620419938265095e+06  7.2984531717815408e+06  -4.4195725708847353e+06  7.8527701932135997e+06  -5.2277604763190309e+06  1.0149953840414224e+07  -8.3264342770652305e+06  1.7046425791192263e+07  -1.0882693307023462e+07  2.0820034579198230e+07  -1.5681987993362164e+07  2.7212730376523852e+07  -1.8157972110583954e+07  2.5270759221814748e+07  -1.7012350136820108e+07  2.9498193183697660e+07  3.7801967528966900e+00  0.0000000000000000e+00  6.4663545103010749e+06  -5.5614799709286289e+06  -1.7757879202347195e+06  -2.1354353679596153e+05  -3.9234770473699030e+06  2.7835096163261011e+06  -3.6417028322399301e+06  2.8158578775083818e+06  -3.7792412022447861e+06  3.9213975418560822e+06  -4.6255904058827730e+06  3.0690637782353605e+06  -4.3625088487336095e+06  2.4848291984248455e+06  -4.8109152180448761e+06  2.0997483034060425e+06  -4.1514186924612033e+06  1.2703851483679074e+06  -5.4257294650361119e+06  2.2693408424783549e+06  -9.8364182649489138e+06  3.0630290825599413e+06  -1.0882761204479167e+07  1.8933730694687932e+06  -1.2082744393826958e+07  1.8221353340723642e+05  -9.4819227015814148e+06  -6.0398753339410620e+06  1.0165241653842172e+06  3.1644175462014772e+00  7.5691871682321235e-09  1.4064212309652055e+07  -7.7339635891877254e+06  5.8333882717093751e+06  -4.7361580249748891e+06  4.9357526083171014e+06  -3.8816117271682937e+06  3.3106107248660019e+06  -3.7792412060663840e+06  4.4640308079870371e+06  -4.5333044876018828e+06  4.3522641419970309e+06  -4.1642870228225752e+06  5.8756498008083934e+06  -5.2378169630574472e+06  7.0091797677910458e+06  -4.7888270693154112e+06  6.2522267743138568e+06  -4.8654371298770299e+06  9.7933170332778078e+06  -7.5955210344490865e+06  1.3995194199205941e+07  -9.8365343342799954e+06  1.7046521124610752e+07  -1.0404591943832800e+07  1.6501161195900664e+07  -7.9165130566569380e+06  1.5119026483711006e+07  -9.8150238288972508e+06  2.0186858379789181e+07  2.6271219141137094e+00  0.0000000000000000e+00  4.6704283657179559e+06  -6.5071838728070259e+06  -1.8509906281690649e+06  -2.2806438207626430e+05  -3.6296894054171070e+06  1.3766566246550097e+06  -3.6603709986708579e+06  3.9213975621773121e+06  -4.5333044996408820e+06  3.7898888490697686e+06  -4.0934950083052618e+06  4.8089139665408721e+06  -5.5719392469429960e+06  4.1712191692243470e+06  -4.4613633614859246e+06  2.0693322109608501e+06  -3.1068129036015607e+06  2.4955202001831452e+06  -7.1344360168648930e+06  3.9572912184656523e+06  -7.5957140550642144e+06  2.2695005978072025e+06  -8.3264608860452101e+06  8.3250674010592082e+05  -7.2195843312619776e+06  -3.4390413389845425e+06  -4.6581811498334175e+06  -8.2134288933027685e+06  1.5901463869190526e+06  2.1613397624489297e+00  7.9196399083078995e-09  1.3729199560444660e+07  -8.5131007196765710e+06  8.4951677507142965e+06  -5.6244820144369463e+06  5.6609293735608989e+06  -3.9120045322853047e+06  5.4311031612097835e+06  -4.6255904175630854e+06  4.3522641555805560e+06  -4.0934950130090769e+06  5.4035164519697968e+06  -5.8548546487189485e+06  5.1991919230215633e+06  -4.1584174635946038e+06  4.9175264256632403e+06  -3.8690476266490305e+06  5.7063805195463551e+06  -6.1584808906329079e+06  1.0265650690182274e+07  -7.1347358434857512e+06  9.7935707481150255e+06  -5.4257660934272083e+06  1.0149855772600038e+07  -4.4463121928539462e+06  9.8980626569157504e+06  -4.7708053839876782e+06  1.2446123498992341e+07  -8.5795890236245506e+06  1.7384691974329893e+07  1.7604247448881674e+00  0.0000000000000000e+00  2.8710573612825675e+06  -6.2114175909958994e+06  -2.1631833920957837e+06  -1.6662035909878828e+06  -2.9514924638325186e+06  1.3485147670136222e+06  -4.5477077304077707e+06  3.0690638198235370e+06  -4.1642870634624935e+06  4.8089139926738720e+06  -5.8548546703489199e+06  4.6168120287442859e+06  -3.6351455967508554e+06  4.0819993454552884e+06  -4.8665369630797347e+06  3.4911538462526449e+06  -4.5593268325699233e+06  4.2296180035261204e+06  -6.1589173635084638e+06  2.4958984897532593e+06  -4.8654866553875245e+06  1.2702193979209461e+06  -5.2276174379407354e+06  -1.0566219354119969e+06  -4.3400813956551636e+06  -3.3640508912217482e+06  -3.8155122985881506e+06  -7.6154319267442934e+06  1.0038158607589101e+06  1.4180550181427418e+00  6.6465180656111406e-06  1.4301223598001072e+07  -8.8317127544592824e+06  9.4698719666102529e+06  -5.3386792305603977e+06  7.2586624510013014e+06  -5.1635392395712836e+06  6.7254626833065152e+06  -4.3625088502497775e+06  5.8756498417571131e+06  -5.5719392827910185e+06  5.1991919576896522e+06  -3.6351456045636353e+06  4.6534276718322793e+06  -6.1078867545900531e+06  5.2683912349162176e+06  -3.1632311670160061e+06  4.4860554261147333e+06  -4.5599112804193674e+06  5.7069039654510124e+06  -3.1068731361271068e+06  6.2519666600815440e+06  -4.1511915046340958e+06  7.8527375726978499e+06  -4.0568839173723175e+06  9.4892571878054868e+06  -6.1305630686455220e+06  1.1974947265349830e+07  -8.4523720828769561e+06  1.5878906327547677e+07  1.1282328643718560e+00  0.0000000000000000e+00  1.5239886849616100e+06  -6.6624555082984511e+06  -1.9417525918714625e+06  -2.4068003849771102e+06  -3.9779116188961286e+06  1.3038208129139976e+06  -4.3620421362035340e+06  2.4848292780606840e+06  -5.2378170847092299e+06  4.1712192465531244e+06  -4.1584175225302656e+06  4.0819993761615679e+06  -6.1078867941077417e+06  5.2467883868740536e+06  -1.9184892471359230e+06  5.9034684742106439e+05  -3.1639465619581975e+06  3.4918195789336995e+06  -3.8691167033992689e+06  2.0689576345200066e+06  -4.7884958234664081e+06  2.0997062430096865e+06  -4.4197059683980392e+06  2.2605673083363421e+04  -4.6295579213402290e+06  -2.1917451330339168e+06  -2.8921100116823232e+06  -7.3084244343485525e+06  1.0527695862848239e+06  8.8528476669908107e-01  -3.7488288532471349e-09  1.4946711848105293e+07  -8.3491671234437870e+06  1.0375832302275030e+07  -6.0604432633196861e+06  9.2620843312076200e+06  -5.1998421915447097e+06  7.2984532388024954e+06  -4.8109152503363844e+06  7.0091798696140591e+06  -4.4613634126070542e+06  4.9175265010592043e+06  -4.8665370496745734e+06  5.2683913485339917e+06  -1.9184892950482925e+06  -1.9603116162925636e+05  -1.9192820498557989e+06  5.2691630133153675e+06  -4.8666104178287322e+06  4.9170358945389343e+06  -4.4609188841774063e+06  7.0091310330892690e+06  -4.8111193572053723e+06  7.2986143437313288e+06  -5.1998498017952768e+06  9.2620203719671201e+06  -6.0604046451741057e+06  1.0375836006457327e+07  -8.3491810170131419e+06  1.4946716504959036e+07  6.8386140921235627e-01  0.0000000000000000e+00  1.0527756682941832e+06  -7.3084262231523739e+06  -2.8921305606369763e+06  -2.1917089576785699e+06  -4.6295507739932081e+06  2.2501611278856493e+04  -4.4195728045320902e+06  2.0997484797326527e+06  -4.7888272979032127e+06  2.0693323615398821e+06  -3.8690478220382659e+06  3.4911540222432492e+06  -3.1632313055890393e+06  5.9034684739002632e+05  -1.9192820019302773e+06  5.2475995745996227e+06  -6.1079620106467279e+06  4.0814204026094303e+06  -4.1578751970123793e+06  4.1711681125426088e+06  -5.2381029052638356e+06  2.4850576826619958e+06  -4.3620485722278561e+06  1.3037174098262324e+06  -3.9778486661962061e+06  -2.4067925378576973e+06  -1.9417813196226857e+06  -6.6624439599041846e+06  1.5239902681464376e+06  5.1893767696398774e-01  -3.8516795477913417e-09  1.5878906131975261e+07  -8.4523827169576976e+06  1.1974966221355597e+07  -6.1305586998919565e+06  9.4891953973155264e+06  -4.0568045934282248e+06  7.8527703445303002e+06  -4.1514187946032807e+06  6.2522269443733916e+06  -3.1068129976578308e+06  5.7063806771304496e+06  -4.5593269135086080e+06  4.4860554260476371e+06  -3.1639464232998141e+06  5.2691628997057043e+06  -6.1079619711284731e+06  4.6528154016253725e+06  -3.6345455420976030e+06  5.1991414443246117e+06  -5.5722987724994700e+06  5.8759440205455767e+06  -4.3625097473042738e+06  6.7253098023248632e+06  -5.1634440960152484e+06  7.2586766683904938e+06  -5.3387278084214889e+06  9.4698924486622848e+06  -8.8317058787987251e+06  1.4301215969028901e+07  3.8581265722523334e-01  0.0000000000000000e+00  1.0038130532184467e+06  -7.6154236114527769e+06  -3.8155088588166446e+06  -3.3640850956512894e+06  -4.3400365606759563e+06  -1.0565992842305512e+06  -5.2277608408386717e+06  1.2703853866597118e+06  -4.8654373924801396e+06  2.4955203321871776e+06  -6.1584810480517764e+06  4.2296180034840824e+06  -4.5599111993480120e+06  3.4918194028379917e+06  -4.8666103312790636e+06  4.0814203718853025e+06  -3.6345455342891552e+06  4.6167622334166914e+06  -5.8552589286467331e+06  4.8092569632545998e+06  -4.1642810248155920e+06  3.0688600215356215e+06  -4.5475788999047177e+06  1.3485387494360220e+06  -2.9515687443389967e+06  -1.6661707437241024e+06  -2.1631704195951265e+06  -6.2114357489967439e+06  2.8710610162460227e+06  2.8010963321338117e-01  0.0000000000000000e+00  1.7384695098199446e+07  -8.5795879287662003e+06  1.2446106219572261e+07  -4.7707825606977297e+06  9.8980769056074470e+06  -4.4463972568925582e+06  1.0149954003933802e+07  -5.4257294769345960e+06  9.7933171003148761e+06  -7.1344359632031322e+06  1.0265650690078434e+07  -6.1589172060521226e+06  5.7069038078056416e+06  -3.8691165078669405e+06  4.9170358192544160e+06  -4.1578751380219064e+06  5.1991414096838534e+06  -5.8552589070125977e+06  5.4038774939342197e+06  -4.0934835531544522e+06  4.3520210297010420e+06  -4.6254320549582401e+06  5.4311385236589657e+06  -3.9121110924637169e+06  5.6609759385659639e+06  -5.6244588980835043e+06  8.4951349432429634e+06  -8.5130919441497829e+06  1.3729204537665332e+07  1.9777609663759232e-01  0.0000000000000000e+00  1.5901483952473793e+06  -8.2134371142088370e+06  -4.6581692139966469e+06  -3.4390333975539226e+06  -7.2196305905348100e+06  8.3256094756660436e+05  -8.3264345962792402e+06  2.2693409305484099e+06  -7.5955211820710432e+06  3.9572912180492063e+06  -7.1347358966822261e+06  2.4958983577233953e+06  -3.1068730421367097e+06  2.0689574837192588e+06  -4.4609188332589185e+06  4.1711680350858229e+06  -5.5722987367203580e+06  4.8092569370901547e+06  -4.0934835484531964e+06  3.7896308463182701e+06  -4.5331292496098923e+06  3.9214426814407497e+06  -3.6605054929759516e+06  1.3767164282205484e+06  -3.6296553965728409e+06  -2.2811393253979081e+05  -1.8509781026564734e+06  -6.5071711644261992e+06  4.6704190155844055e+06  1.3508373515305810e-01  0.0000000000000000e+00  2.0186855995682023e+07  -9.8150196177653149e+06  1.5119030682444144e+07  -7.9165375929757981e+06  1.6501189225385139e+07  -1.0404575125782233e+07  1.7046425860649869e+07  -9.8364181267420463e+06  1.3995194198989965e+07  -7.5957139066748675e+06  9.7935706804020740e+06  -4.8654863927454855e+06  6.2519664902769597e+06  -4.7884955944953244e+06  7.0091309316127459e+06  -5.2381027833546326e+06  5.8759439797482099e+06  -4.1642809840939669e+06  4.3520210161499940e+06  -4.5331292375681270e+06  4.4640797939109951e+06  -3.7793921904772390e+06  3.3106799196906332e+06  -3.8815666494382964e+06  4.9356859925113255e+06  -4.7361407471744064e+06  5.8334097490515495e+06  -7.7339820687799463e+06  1.4064214487664467e+07  8.8628598169130560e-02  0.0000000000000000e+00  1.0165272998760479e+06  -6.0398738013946237e+06  -9.4819332356852721e+06  1.8222668995086508e+05  -1.2082732824402958e+07  1.8933186237038479e+06  -1.0882693577560885e+07  3.0630290817889683e+06  -9.8365344721774627e+06  2.2695005094175017e+06  -5.4257660807682183e+06  1.2702191594224251e+06  -4.1511914030387704e+06  2.0997060659957528e+06  -4.8111193255237909e+06  2.4850576025449662e+06  -4.3625097461092016e+06  3.0688599797636387e+06  -4.6254320433728229e+06  3.9214426610862766e+06  -3.7793921866583023e+06  2.8159304947758480e+06  -3.6416511901119337e+06  2.7834302741598305e+06  -3.9234568831771309e+06  -2.1351251131346816e+05  -1.7758171743623593e+06  -5.5614764551203838e+06  6.4663610439513875e+06  5.5330297918692609e-02  1.1029025241772487e-08  2.9498194279663101e+07  -1.7012355435862351e+07  2.5270764701714959e+07  -1.8157965863774594e+07  2.7212700498007543e+07  -1.5681951348353796e+07  2.0820034577512432e+07  -1.0882760930724245e+07  1.7046521054330666e+07  -8.3264605671647871e+06  1.0149855608405331e+07  -5.2276170728436913e+06  7.8527374224501140e+06  -4.4197057335240664e+06  7.2986142778245192e+06  -4.3620484289619848e+06  6.7253097577155717e+06  -4.5475788063530875e+06  5.4311384978560619e+06  -3.6605054572095051e+06  3.3106799142663414e+06  -3.6416511829157225e+06  3.3350494224746022e+06  -4.0664592100232379e+06  2.4843480839076559e+06  -2.8983223314834493e+06  3.3876512548043937e+06  -6.9527818697428806e+06  1.5014688420917286e+07  3.2433604810249206e-02  0.0000000000000000e+00  -4.6343671268314281e+06  -8.4108543929611775e+05  -1.5742178867213590e+07  2.8434255017394898e+06  -1.7351732052954696e+07  4.9244687907541031e+06  -1.5681988208116092e+07  1.8933729171249438e+06  -1.0404592017793069e+07  8.3250649909905251e+05  -4.4463121625580983e+06  -1.0566221964197999e+06  -4.0568838933591200e+06  2.2605501610625022e+04  -5.1998498014320377e+06  1.3037172917913357e+06  -5.1634441024447838e+06  1.3485386862083718e+06  -3.9121111125742043e+06  1.3767164018713783e+06  -3.8815666530312886e+06  2.7834302570545180e+06  -4.0664592056488981e+06  1.9250904053081479e+06  -2.6131567393307886e+06  4.0599463590189943e+05  -3.8436958171692370e+06  -2.8386644810440321e+06  9.0458935006373059e+06  1.7506852075836306e-02  0.0000000000000000e+00  5.1390830185625993e+07  -2.7805792397734702e+07  3.9072849839428477e+07  -2.5947003475510266e+07  3.1950678895423539e+07  -1.7351751946685079e+07  2.7212730233629409e+07  -1.2082743892305352e+07  1.6501161058101745e+07  -7.2195838699803706e+06  9.8980625103892777e+06  -4.3400810002220003e+06  9.4892570813251659e+06  -4.6295576362433955e+06  9.2620203118651621e+06  -3.9778484776922311e+06  7.2586766519277869e+06  -2.9515686320362096e+06  5.6609759313642597e+06  -3.6296553167812726e+06  4.9356859750336567e+06  -3.9234568429394742e+06  2.4843480800705333e+06  -2.6131567352449694e+06  1.1261519344828848e+06  -3.8046900175604313e+06  1.2947754880484871e+06  -3.1060381332929060e+06  1.5760026813554060e+07  8.4427334470661194e-03  0.0000000000000000e+00  -1.5394228009988260e+07  2.7440147796998126e+06  -2.5428667322409056e+07  1.0333784061243854e+07  -2.5947013155590266e+07  2.8434411543854987e+06  -1.8157