<?xml version="1.0"?>
<VTKFile type="UnstructuredGrid"  version="0.1"  >
<UnstructuredGrid>
<Piece  NumberOfPoints="961" NumberOfCells="1800">
<Points>
<DataArray  type="Float64"  NumberOfComponents="3"  format="ascii">-1 -1 0  -0.9333333333333333 -1 0  -0.8666666666666667 -1 0  -0.8 -1 0  -0.7333333333333334 -1 0  -0.6666666666666667 -1 0  -0.6 -1 0  -0.5333333333333333 -1 0  -0.4666666666666667 -1 0  -0.4 -1 0  -0.3333333333333334 -1 0  -0.2666666666666667 -1 0  -0.2 -1 0  -0.1333333333333333 -1 0  -0.06666666666666665 -1 0  0 -1 0  0.06666666666666665 -1 0  0.1333333333333333 -1 0  0.2 -1 0  0.2666666666666666 -1 0  0.3333333333333333 -1 0  0.3999999999999999 -1 0  0.4666666666666666 -1 0  0.5333333333333334 -1 0  0.6000000000000001 -1 0  0.6666666666666667 -1 0  0.7333333333333334 -1 0  0.8 -1 0  0.8666666666666667 -1 0  0.9333333333333333 -1 0  1 -1 0  -1 -0.9333333333333333 0  -0.9333333333333333 -0.9333333333333333 0  -0.8666666666666667 -0.9333333333333333 0  -0.8 -0.9333333333333333 0  -0.7333333333333334 -0.9333333333333333 0  -0.6666666666666667 -0.9333333333333333 0  -0.6 -0.9333333333333333 0  -0.5333333333333333 -0.9333333333333333 0  -0.4666666666666667 -0.9333333333333333 0  -0.4 -0.9333333333333333 0  -0.3333333333333334 -0.9333333333333333 0  -0.2666666666666667 -0.9333333333333333 0  -0.2 -0.9333333333333333 0  -0.1333333333333333 -0.9333333333333333 0  -0.06666666666666665 -0.9333333333333333 0  0 -0.9333333333333333 0  0.06666666666666665 -0.9333333333333333 0  0.1333333333333333 -0.9333333333333333 0  0.2 -0.9333333333333333 0  0.2666666666666666 -0.9333333333333333 0  0.3333333333333333 -0.9333333333333333 0  0.3999999999999999 -0.9333333333333333 0  0.4666666666666666 -0.9333333333333333 0  0.5333333333333334 -0.9333333333333333 0  0.6000000000000001 -0.9333333333333333 0  0.6666666666666667 -0.9333333333333333 0  0.7333333333333334 -0.9333333333333333 0  0.8 -0.9333333333333333 0  0.8666666666666667 -0.9333333333333333 0  0.9333333333333333 -0.9333333333333333 0  1 -0.9333333333333333 0  -1 -0.8666666666666667 0  -0.9333333333333333 -0.8666666666666667 0  -0.8666666666666667 -0.8666666666666667 0  -0.8 -0.8666666666666667 0  -0.7333333333333334 -0.8666666666666667 0  -0.6666666666666667 -0.8666666666666667 0  -0.6 -0.8666666666666667 0  -0.5333333333333333 -0.8666666666666667 0  -0.4666666666666667 -0.8666666666666667 0  -0.4 -0.8666666666666667 0  -0.3333333333333334 -0.8666666666666667 0  -0.2666666666666667 -0.8666666666666667 0  -0.2 -0.8666666666666667 0  -0.1333333333333333 -0.8666666666666667 0  -0.06666666666666665 -0.8666666666666667 0  0 -0.8666666666666667 0  0.06666666666666665 -0.8666666666666667 0  0.1333333333333333 -0.8666666666666667 0  0.2 -0.8666666666666667 0  0.2666666666666666 -0.8666666666666667 0  0.3333333333333333 -0.8666666666666667 0  0.3999999999999999 -0.8666666666666667 0  0.4666666666666666 -0.8666666666666667 0  0.5333333333333334 -0.8666666666666667 0  0.6000000000000001 -0.8666666666666667 0  0.6666666666666667 -0.8666666666666667 0  0.7333333333333334 -0.8666666666666667 0  0.8 -0.8666666666666667 0  0.8666666666666667 -0.8666666666666667 0  0.9333333333333333 -0.8666666666666667 0  1 -0.8666666666666667 0  -1 -0.8 0  -0.9333333333333333 -0.8 0  -0.8666666666666667 -0.8 0  -0.8 -0.8 0  -0.7333333333333334 -0.8 0  -0.6666666666666667 -0.8 0  -0.6 -0.8 0  -0.5333333333333333 -0.8 0  -0.4666666666666667 -0.8 0  -0.4 -0.8 0  -0.3333333333333334 -0.8 0  -0.2666666666666667 -0.8 0  -0.2 -0.8 0  -0.1333333333333333 -0.8 0  -0.06666666666666665 -0.8 0  0 -0.8 0  0.06666666666666665 -0.8 0  0.1333333333333333 -0.8 0  0.2 -0.8 0  0.2666666666666666 -0.8 0  0.3333333333333333 -0.8 0  0.3999999999999999 -0.8 0  0.4666666666666666 -0.8 0  0.5333333333333334 -0.8 0  0.6000000000000001 -0.8 0  0.6666666666666667 -0.8 0  0.7333333333333334 -0.8 0  0.8 -0.8 0  0.8666666666666667 -0.8 0  0.9333333333333333 -0.8 0  1 -0.8 0  -1 -0.7333333333333334 0  -0.9333333333333333 -0.7333333333333334 0  -0.8666666666666667 -0.7333333333333334 0  -0.8 -0.7333333333333334 0  -0.7333333333333334 -0.7333333333333334 0  -0.6666666666666667 -0.7333333333333334 0  -0.6 -0.7333333333333334 0  -0.5333333333333333 -0.7333333333333334 0  -0.4666666666666667 -0.7333333333333334 0  -0.4 -0.7333333333333334 0  -0.3333333333333334 -0.7333333333333334 0  -0.2666666666666667 -0.7333333333333334 0  -0.2 -0.7333333333333334 0  -0.1333333333333333 -0.7333333333333334 0  -0.06666666666666665 -0.7333333333333334 0  0 -0.7333333333333334 0  0.06666666666666665 -0.7333333333333334 0  0.1333333333333333 -0.7333333333333334 0  0.2 -0.7333333333333334 0  0.2666666666666666 -0.7333333333333334 0  0.3333333333333333 -0.7333333333333334 0  0.3999999999999999 -0.7333333333333334 0  0.4666666666666666 -0.7333333333333334 0  0.5333333333333334 -0.7333333333333334 0  0.6000000000000001 -0.7333333333333334 0  0.6666666666666667 -0.7333333333333334 0  0.7333333333333334 -0.7333333333333334 0  0.8 -0.7333333333333334 0  0.8666666666666667 -0.7333333333333334 0  0.9333333333333333 -0.7333333333333334 0  1 -0.7333333333333334 0  -1 -0.6666666666666667 0  -0.9333333333333333 -0.6666666666666667 0  -0.8666666666666667 -0.6666666666666667 0  -0.8 -0.6666666666666667 0  -0.7333333333333334 -0.6666666666666667 0  -0.6666666666666667 -0.6666666666666667 0  -0.6 -0.6666666666666667 0  -0.5333333333333333 -0.6666666666666667 0  -0.4666666666666667 -0.6666666666666667 0  -0.4 -0.6666666666666667 0  -0.3333333333333334 -0.6666666666666667 0  -0.2666666666666667 -0.6666666666666667 0  -0.2 -0.6666666666666667 0  -0.1333333333333333 -0.6666666666666667 0  -0.06666666666666665 -0.6666666666666667 0  0 -0.6666666666666667 0  0.06666666666666665 -0.6666666666666667 0  0.1333333333333333 -0.6666666666666667 0  0.2 -0.6666666666666667 0  0.2666666666666666 -0.6666666666666667 0  0.3333333333333333 -0.6666666666666667 0  0.3999999999999999 -0.6666666666666667 0  0.4666666666666666 -0.6666666666666667 0  0.5333333333333334 -0.6666666666666667 0  0.6000000000000001 -0.6666666666666667 0  0.6666666666666667 -0.6666666666666667 0  0.7333333333333334 -0.6666666666666667 0  0.8 -0.6666666666666667 0  0.8666666666666667 -0.6666666666666667 0  0.9333333333333333 -0.6666666666666667 0  1 -0.6666666666666667 0  -1 -0.6 0  -0.9333333333333333 -0.6 0  -0.8666666666666667 -0.6 0  -0.8 -0.6 0  -0.7333333333333334 -0.6 0  -0.6666666666666667 -0.6 0  -0.6 -0.6 0  -0.5333333333333333 -0.6 0  -0.4666666666666667 -0.6 0  -0.4 -0.6 0  -0.3333333333333334 -0.6 0  -0.2666666666666667 -0.6 0  -0.2 -0.6 0  -0.1333333333333333 -0.6 0  -0.06666666666666665 -0.6 0  0 -0.6 0  0.06666666666666665 -0.6 0  0.1333333333333333 -0.6 0  0.2 -0.6 0  0.2666666666666666 -0.6 0  0.3333333333333333 -0.6 0  0.3999999999999999 -0.6 0  0.4666666666666666 -0.6 0  0.5333333333333334 -0.6 0  0.6000000000000001 -0.6 0  0.6666666666666667 -0.6 0  0.7333333333333334 -0.6 0  0.8 -0.6 0  0.8666666666666667 -0.6 0  0.9333333333333333 -0.6 0  1 -0.6 0  -1 -0.5333333333333333 0  -0.9333333333333333 -0.5333333333333333 0  -0.8666666666666667 -0.5333333333333333 0  -0.8 -0.5333333333333333 0  -0.7333333333333334 -0.5333333333333333 0  -0.6666666666666667 -0.5333333333333333 0  -0.6 -0.5333333333333333 0  -0.5333333333333333 -0.5333333333333333 0  -0.4666666666666667 -0.5333333333333333 0  -0.4 -0.5333333333333333 0  -0.3333333333333334 -0.5333333333333333 0  -0.2666666666666667 -0.5333333333333333 0  -0.2 -0.5333333333333333 0  -0.1333333333333333 -0.5333333333333333 0  -0.06666666666666665 -0.5333333333333333 0  0 -0.5333333333333333 0  0.06666666666666665 -0.5333333333333333 0  0.1333333333333333 -0.5333333333333333 0  0.2 -0.5333333333333333 0  0.2666666666666666 -0.5333333333333333 0  0.3333333333333333 -0.5333333333333333 0  0.3999999999999999 -0.5333333333333333 0  0.4666666666666666 -0.5333333333333333 0  0.5333333333333334 -0.5333333333333333 0  0.6000000000000001 -0.5333333333333333 0  0.6666666666666667 -0.5333333333333333 0  0.7333333333333334 -0.5333333333333333 0  0.8 -0.5333333333333333 0  0.8666666666666667 -0.5333333333333333 0  0.9333333333333333 -0.5333333333333333 0  1 -0.5333333333333333 0  -1 -0.4666666666666667 0  -0.9333333333333333 -0.4666666666666667 0  -0.8666666666666667 -0.4666666666666667 0  -0.8 -0.4666666666666667 0  -0.7333333333333334 -0.4666666666666667 0  -0.6666666666666667 -0.4666666666666667 0  -0.6 -0.4666666666666667 0  -0.5333333333333333 -0.4666666666666667 0  -0.4666666666666667 -0.4666666666666667 0  -0.4 -0.4666666666666667 0  -0.3333333333333334 -0.4666666666666667 0  -0.2666666666666667 -0.4666666666666667 0  -0.2 -0.4666666666666667 0  -0.1333333333333333 -0.4666666666666667 0  -0.06666666666666665 -0.4666666666666667 0  0 -0.4666666666666667 0  0.06666666666666665 -0.4666666666666667 0  0.1333333333333333 -0.4666666666666667 0  0.2 -0.4666666666666667 0  0.2666666666666666 -0.4666666666666667 0  0.3333333333333333 -0.4666666666666667 0  0.3999999999999999 -0.4666666666666667 0  0.4666666666666666 -0.4666666666666667 0  0.5333333333333334 -0.4666666666666667 0  0.6000000000000001 -0.4666666666666667 0  0.6666666666666667 -0.4666666666666667 0  0.7333333333333334 -0.4666666666666667 0  0.8 -0.4666666666666667 0  0.8666666666666667 -0.4666666666666667 0  0.9333333333333333 -0.4666666666666667 0  1 -0.4666666666666667 0  -1 -0.4 0  -0.9333333333333333 -0.4 0  -0.8666666666666667 -0.4 0  -0.8 -0.4 0  -0.7333333333333334 -0.4 0  -0.6666666666666667 -0.4 0  -0.6 -0.4 0  -0.5333333333333333 -0.4 0  -0.4666666666666667 -0.4 0  -0.4 -0.4 0  -0.3333333333333334 -0.4 0  -0.2666666666666667 -0.4 0  -0.2 -0.4 0  -0.1333333333333333 -0.4 0  -0.06666666666666665 -0.4 0  0 -0.4 0  0.06666666666666665 -0.4 0  0.1333333333333333 -0.4 0  0.2 -0.4 0  0.2666666666666666 -0.4 0  0.3333333333333333 -0.4 0  0.3999999999999999 -0.4 0  0.4666666666666666 -0.4 0  0.5333333333333334 -0.4 0  0.6000000000000001 -0.4 0  0.6666666666666667 -0.4 0  0.7333333333333334 -0.4 0 
[...]
<PointData  Scalars="f_24"> 
<DataArray  type="Float64"  Name="f_24"  format="ascii">0.0000000000000000e+00  0.0000000000000000e+00  0.0000000000000000e+00  0.0000000000000000e+00  0.0000000000000000e+00  0.0000000000000000e+00  0.0000000000000000e+00  0.0000000000000000e+00  0.0000000000000000e+00  0.0000000000000000e+00  0.0000000000000000e+00  0.0000000000000000e+00  0.0000000000000000e+00  0.0000000000000000e+00  0.0000000000000000e+00  0.0000000000000000e+00  0.0000000000000000e+00  0.0000000000000000e+00  0.0000000000000000e+00  0.0000000000000000e+00  0.0000000000000000e+00  0.0000000000000000e+00  0.0000000000000000e+00  0.0000000000000000e+00  0.0000000000000000e+00  -2.1346106765688568e-07  0.0000000000000000e+00  -3.1817450956019953e-07  0.0000000000000000e+00  0.0000000000000000e+00  1.2904663042837230e+01  0.0000000000000000e+00  1.1763623176519087e+07  1.2838243688239988e+07  1.8683344504882712e+07  1.3435827284220858e+07  1.8414250370093644e+07  1.0472679358574647e+07  1.7493256839020636e+07  7.3959067057089210e+06  1.6344490090423986e+07  5.2559968508476978e+06  1.5932661789089086e+07  3.1215268291179924e+06  1.6598671867192127e+07  1.5274375496813776e+06  1.7357413381533887e+07  9.7188473647992592e+05  1.8459688877112333e+07  9.1987830480233405e+05  2.0244503297422811e+07  1.6239563208178014e+06  2.3566109360009979e+07  9.6911470615462540e+05  3.4575061053668618e+07  -5.6618266507016784e+06  6.0435686903398819e+07  -1.8303451381240930e+07  1.0023997808590400e+08  -1.1244329358313598e+07  2.1812503731942397e+08  1.1268176520495011e+01  0.0000000000000000e+00  1.2838243667839378e+07  1.4090652432010418e+07  5.6153175925354622e+06  2.4449249201544649e+06  -3.9186846677689138e+06  -3.6087486464118529e+06  -8.4558931625658385e+06  -6.8029440741597302e+06  -9.3491050147367232e+06  -7.8848972631232245e+06  -1.0233936789552394e+07  -7.5049418097742228e+06  -1.0584103328610465e+07  -8.0186177383190952e+06  -1.0005139377541428e+07  -8.7795228311595358e+06  -1.0134833653680801e+07  -9.1578912406568117e+06  -1.0308402688244328e+07  -9.8921724667357262e+06  -1.1797371747626163e+07  -7.3601430337096630e+06  -2.0312462010563042e+07  -1.2453877227670087e+06  -3.3042850077625994e+07  3.0043261045188028e+06  -2.8564161698090468e+07  -1.7617548620841838e+07  -1.1244337481476326e+07  9.7925044017244343e+00  1.1335453423678558e-09  1.8683344496075362e+07  5.6153175960859340e+06  1.9635610745294723e+06  -4.6194009909026129e+06  1.2950480748798386e+06  -4.7210610988318389e+06  3.8623364225888476e+06  -2.1704457303598402e+06  6.8573054700873205e+06  -2.1589356722422428e+06  1.0081409232447322e+07  -2.4597069926353628e+06  1.1280610706007684e+07  -2.1660954681162550e+06  1.2365034387226010e+07  -3.2869819506496629e+06  1.4235056777959889e+07  -4.4082257222237615e+06  1.4741642957069265e+07  -5.4682474247052139e+06  1.7811218021356039e+07  -1.1254489443783863e+07  2.9677466328623772e+07  -1.8745173879310269e+07  4.5859930486859031e+07  -3.0236322981207129e+07  5.4874264919257253e+07  -2.8564161139399342e+07  1.0023997966388807e+08  8.4667492317383921e+00  0.0000000000000000e+00  1.3435827220913235e+07  2.4449249398234515e+06  -4.6194009968329975e+06  5.1582964046817663e+05  -4.6202611829565968e+06  4.4034731467028591e+05  -3.3658161186053921e+06  -1.2255534319114139e+05  -5.3971290321667735e+06  -3.8103317659992957e+04  -6.3744577639193619e+06  -1.6888719094373498e+06  -6.0103540271829832e+06  -2.5479925364175304e+06  -6.8559838524812525e+06  -2.2953858361784029e+06  -6.9463593665793110e+06  -3.6942434090604051e+06  -5.3711484044456789e+06  -3.8288410685815052e+06  -9.1515019822649639e+06  3.4184838431381795e+05  -2.1363039746850573e+07  3.3182840209572618e+06  -3.0727403484535553e+07  1.1984310487431239e+07  -3.0236331527331788e+07  3.0043318724400317e+06  -1.8303458181998234e+07  7.2803966650167737e+00  -3.3562597298310045e-09  1.8414250352095928e+07  -3.9186846303491862e+06  1.2950480813883811e+06  -4.6202611866789125e+06  1.3229318112070989e+06  -2.9678537791611562e+06  3.1347487866124115e+06  -4.3650302339261062e+06  6.1125059743011277e+06  -3.9806381367591643e+06  6.9736659760366818e+06  -3.1918706894007977e+06  8.8411893017505705e+06  -4.4174613095824467e+06  1.1195009431920493e+07  -5.1869944179958012e+06  1.1469781616459578e+07  -4.8326630718160598e+06  1.1966537894796865e+07  -8.2198801067928849e+06  1.9746521019770596e+07  -1.3993984078809761e+07  3.2293921394756526e+07  -2.0352847716999955e+07  3.7678875190718517e+07  -3.0727413808257364e+07  4.5859940211223044e+07  -3.3042851130052984e+07  6.0435686364259183e+07  6.2233135816151774e+00  0.0000000000000000e+00  1.0472679266513349e+07  -3.6087485903837336e+06  -4.7210611513829222e+06  4.4034732634686492e+05  -2.9678537839694065e+06  2.4961013471934921e+06  -4.5116340533323549e+06  3.5815901140914802e+06  -4.2926557672122065e+06  1.8823508043575224e+06  -4.3838714048731169e+06  1.7949474030256411e+06  -5.9040736885345019e+06  1.7119044248856902e+06  -5.9622112296224944e+06  2.0055723348711259e+05  -4.5993068116294360e+06  -1.0427215625485586e+06  -5.0162600005966248e+06  1.2370107444708624e+06  -1.1991096358941365e+07  2.5248785072790505e+06  -1.8218033669486973e+07  6.0274898365643239e+06  -2.0352872451707818e+07  3.3183031334894490e+06  -1.8745181158517156e+07  -1.2453885478879148e+06  -5.6618289652251722e+06  5.2857499823461307e+00  1.2476425418171884e-09  1.7493256829352140e+07  -8.4558931072389241e+06  3.8623364173398213e+06  -3.3658160975522273e+06  3.1347487912035086e+06  -4.5116340584852165e+06  4.2298842884370498e+06  -4.0278882347156447e+06  4.1258434993049456e+06  -4.1412061690146434e+06  6.5436179394722600e+06  -5.2527600557585321e+06  8.0246075367698167e+06  -5.0618877351634298e+06  8.6872647174406238e+06  -5.1294157304206425e+06  9.3546796082814001e+06  -6.0542070702926507e+06  1.2109274970675487e+07  -9.6447743001880348e+06  2.0323535597644351e+07  -1.2572275224298505e+07  2.4844686319550492e+07  -1.8218076635741748e+07  3.2293956807785060e+07  -2.1363046876569293e+07  2.9677460024012256e+07  -2.0312455186095517e+07  3.4575059953930408e+07  4.4583380377414965e+00  0.0000000000000000e+00  7.3959065840143189e+06  -6.8029439949931139e+06  -2.1704458168105618e+06  -1.2255531197770046e+05  -4.3650302811840037e+06  3.5815901342329518e+06  -4.0278882431994714e+06  3.5286388032299378e+06  -4.3088965842842320e+06  4.7262410560531616e+06  -5.3862925970230633e+06  3.6681309339778712e+06  -5.1084184877648633e+06  2.9611253022255767e+06  -5.6449811414582357e+06  2.5074142764567304e+06  -4.8585653448629910e+06  1.5479819090744033e+06  -6.3287000409571650e+06  2.7787379118568543e+06  -1.1452532595188798e+07  3.8183305184789165e+06  -1.2572355302092226e+07  2.5249428953554179e+06  -1.3993998314242404e+07  3.4183322757897177e+05  -1.1254477891213642e+07  -7.3601443321328117e+06  9.6911000977683032e+05  3.7320922787196040e+00  -3.2439373578137671e-09  1.6344490091025122e+07  -9.3491049339257348e+06  6.8573054518947517e+06  -5.3971290021274304e+06  6.1125059953471813e+06  -4.2926557631131131e+06  4.1258435057423813e+06  -4.3088965887873359e+06  5.3548669903665166e+06  -5.2946831285897866e+06  5.1624617979289489e+06  -4.8939102759243194e+06  6.9409463081084890e+06  -6.1689103555628601e+06  8.2743138328060303e+06  -5.6391276453679036e+06  7.3856583003703868e+06  -5.7197902859531771e+06  1.1581150448874148e+07  -8.9044660767243877e+06  1.6597165441218881e+07  -1.1452669486557139e+07  2.0323648033221100e+07  -1.1991116104259679e+07  1.9746488118605904e+07  -9.1514728874054570e+06  1.7811213188298866e+07  -1.1797376415710812e+07  2.3566112438029721e+07  3.0984096108840360e+00  0.0000000000000000e+00  5.2559967049434371e+06  -7.8848971680680001e+06  -2.1589358130901330e+06  -3.8103237961351246e+04  -3.9806382300472702e+06  1.8823508351137845e+06  -4.1412062110719616e+06  4.7262410800212501e+06  -5.2946831427930165e+06  4.4942160844039712e+06  -4.8166725968754729e+06  5.6767138656369010e+06  -6.5687565631182799e+06  4.9211480359429391e+06  -5.2601112113844911e+06  2.4423679874153989e+06  -3.6610966728607444e+06  2.9487853722903212e+06  -8.4022340447365940e+06  4.6930123125962038e+06  -8.9046937239091825e+06  2.7789263261948773e+06  -9.6448056826319918e+06  1.2369470980649451e+06  -8.2198260951940352e+06  -3.8288500644479338e+06  -5.4682622050213441e+06  -9.8921623385772947e+06  1.6239532314228816e+06  2.5490692430295780e+00  -3.9598199541539497e-09  1.5932661803945420e+07  -1.0233936702433785e+07  1.0081409233685307e+07  -6.3744577247778000e+06  6.9736659859117949e+06  -4.3838713817612901e+06  6.5436179701653104e+06  -5.3862926107954103e+06  5.1624618139464725e+06  -4.8166726024190383e+06  6.3765154624853749e+06  -6.9040083361601392e+06  6.1320861639781799e+06  -4.9043911984311156e+06  5.7995952323626494e+06  -4.5631145785109932e+06  6.7304151860001367e+06  -7.2617312046927838e+06  1.2111521662458010e+07  -8.4025876581887342e+06  1.1581449678407392e+07  -6.3287432402233379e+06  1.2109159310171457e+07  -5.0161597120193513e+06  1.1966521263661535e+07  -5.3711752762317592e+06  1.4741663485009573e+07  -1.0308403837854400e+07  2.0244499826732628e+07  2.0762328301303588e+00  0.0000000000000000e+00  3.1215266399125825e+06  -7.5049416768545192e+06  -2.4597071950885849e+06  -1.6888718069694354e+06  -3.1918708197337268e+06  1.7949474765923887e+06  -5.2527601656183796e+06  3.6681309830295467e+06  -4.8939103238589596e+06  5.6767138964590775e+06  -6.9040083616748750e+06  5.4450932383690402e+06  -4.2873431315890336e+06  4.8141087608941104e+06  -5.7395886895146444e+06  4.1172992389289490e+06  -5.3772822965906896e+06  4.9883615310593033e+06  -7.2622459777986286e+06  2.9492315244048815e+06  -5.7198486960022459e+06  1.5477864241407549e+06  -6.0540383718099045e+06  -1.0427479709787644e+06  -4.8327164124536896e+06  -3.6942027360016890e+06  -4.4082303202307085e+06  -9.1579007320384327e+06  9.1988113193263870e+05  1.6724443303517049e+00  -7.0881063337346858e-06  1.6598671914521666e+07  -1.0584103238243578e+07  1.1280610710867865e+07  -6.0103539581547426e+06  8.8411893241644073e+06  -5.9040736824287614e+06  8.0246075901319776e+06  -5.1084184895502245e+06  6.9409463563984083e+06  -6.5687566053936919e+06  6.1320862048633453e+06  -4.2873431408004668e+06  5.4879615109213926e+06  -7.2036895122083919e+06  6.2132650124096926e+06  -3.7308667334855916e+06  5.2907009367076727e+06  -5.3779715903575299e+06  6.7310325344936326e+06  -3.6611677106816242e+06  7.3853515234291060e+06  -4.8582974010936562e+06  9.3546411358675342e+06  -4.5994003965278277e+06  1.1469854622399287e+07  -6.9463644922081400e+06  1.4235034509516101e+07  -1.0134820982950145e+07  1.8459689233224925e+07  1.3306300765442076e+00  0.0000000000000000e+00  1.5274372968126906e+06  -8.0186175769252703e+06  -2.1660957205769145e+06  -2.5479923972381726e+06  -4.4174615279614273e+06  1.7119045621179806e+06  -5.0618879030984677e+06  2.9611253961516460e+06  -6.1689104990424020e+06  4.9211481271451982e+06  -4.9043912679405222e+06  4.8141087971095089e+06  -7.2036895588180274e+06  6.1879166173176458e+06  -2.2626779087520638e+06  6.9619624934914731e+05  -3.7317104653594228e+06  4.1180843994712238e+06  -4.5631960471579675e+06  2.4419262145399898e+06  -5.6387369762961762e+06  2.5073646707173786e+06  -5.1295730585290818e+06  2.0068016281874967e+05  -5.1870031784833847e+06  -2.2954282700953810e+06  -3.2869580773925255e+06  -8.7795205170051698e+06  9.7187722905012150e+05  1.0440987619449145e+00  3.7488288532471349e-09  1.7357413461271320e+07  -1.0005139258868635e+07  1.2365034405502204e+07  -6.8559837941917181e+06  1.1195009507580543e+07  -5.9622112324901214e+06  8.6872647964666411e+06  -5.6449811795281861e+06  8.2743139528875072e+06  -5.2601112716707019e+06  5.7995953212810755e+06  -5.7395887916410957e+06  6.2132651464075176e+06  -2.2626779652551017e+06  -2.3140260253896716e+05  -2.2636129348193309e+06  6.2141752425388666e+06  -5.7396753215344269e+06  5.7990167033266593e+06  -5.2595869978999672e+06  8.2742563554274095e+06  -5.6452219017721741e+06  8.6874548025260791e+06  -5.9622202079671733e+06  1.1194934074491160e+07  -6.8559382482163608e+06  1.2365038774193211e+07  -1.0005155644847142e+07  1.7357418953539163e+07  8.0654144017732687e-01  0.0000000000000000e+00  9.7188440212905314e+05  -8.7795226267059334e+06  -3.2869823126893351e+06  -2.2953856051288531e+06  -5.1869947489537373e+06  2.0055743305572370e+05  -5.1294160059829317e+06  2.5074144844192080e+06  -5.6391279149647737e+06  2.4423681650099615e+06  -4.5631148089543683e+06  4.1172994464896009e+06  -3.7308668969184821e+06  6.9619624931243109e+05  -2.2636128783015669e+06  6.1888733265390545e+06  -7.2037782686868394e+06  4.8134259596863631e+06  -4.9037516529566757e+06  4.9210878200450279e+06  -6.1692475938373217e+06  2.9613947749651712e+06  -5.0618954936879445e+06  1.7117826092069147e+06  -4.4173872819779003e+06  -2.5479831424015565e+06  -2.1661296018880452e+06  -8.0186039568281975e+06  1.5274391640092190e+06  6.1203152525140125e-01  -7.7033590955826834e-09  1.8459689002563965e+07  -1.0134833524714697e+07  1.4235056866094526e+07  -6.9463593397325417e+06  1.1469781747119617e+07  -4.5993068424032498e+06  9.3546797867243085e+06  -4.8585654653265718e+06  7.3856585009429054e+06  -3.6610967837867960e+06  6.7304153718508510e+06  -5.3772823920453414e+06  5.2907009366263049e+06  -3.7317103018233441e+06  6.2141751085527288e+06  -7.2037782220761441e+06  5.4872394036530452e+06  -4.2866354312573606e+06  6.1320266297481321e+06  -6.5691805850818707e+06  6.9412933088363828e+06  -5.1084195475289291e+06  8.0244272833545180e+06  -5.9039614707720913e+06  8.8412060920545626e+06  -6.0104112505496386e+06  1.1280634867258077e+07  -1.0584095129137712e+07  1.6598662916963942e+07  4.5502477789057649e-01  0.0000000000000000e+00  9.1987782073579123e+05  -9.1578909250398129e+06  -4.4082262633860866e+06  -3.6942430764727429e+06  -4.8326635343795754e+06  -1.0427212563212614e+06  -6.0542075002057711e+06  1.5479821901258498e+06  -5.7197905956654279e+06  2.9487855279777120e+06  -7.2617313903539861e+06  4.9883615310077956e+06  -5.3779714947463349e+06  4.1180841917838762e+06  -5.7396752194657512e+06  4.8134259234496141e+06  -4.2866354220513366e+06  5.4450345101017300e+06  -6.9044851411273340e+06  5.6771183936009854e+06  -4.8939032019208688e+06  3.6678906247312012e+06  -5.2526082238108730e+06  1.7949757612953174e+06  -3.1919607844394376e+06  -1.6888330671330490e+06  -2.4596918954118490e+06  -7.5049630922741396e+06  3.1215309505502316e+06  3.3035937389663317e-01  8.2298557378547960e-09  2.0244503510996364e+07  -1.0308402546585023e+07  1.4741643105772709e+07  -5.3711483586005149e+06  1.1966538068465421e+07  -5.0162600359508451e+06  1.2109275163525099e+07  -6.3287000549922399e+06  1.1581150527922167e+07  -8.4022339814270567e+06  1.2111521662328066e+07  -7.2622457920905333e+06  6.7310323485693121e+06  -4.5631958165463889e+06  5.7990166145411311e+06  -4.9037515833811779e+06  6.1320265888950620e+06  -6.9044851156092528e+06  6.3769412728934772e+06  -4.8166590867466629e+06  5.1621750729573350e+06  -5.3861058390298113e+06  6.5436596763947001e+06  -4.3839970581020154e+06  6.9737209043573467e+06  -6.3744304615102150e+06  1.0081370540779907e+07  -1.0233926352638327e+07  1.5932667674043516e+07  2.3325576741997525e-01  0.0000000000000000e+00  1.6239556000290909e+06  -9.8921720342579652e+06  -5.4682481279774997e+06  -3.8288406983776358e+06  -8.2198806530659432e+06  1.2370110299888116e+06  -9.6447746766622402e+06  2.7787380157291708e+06  -8.9044662508228309e+06  4.6930123121064547e+06  -8.4025877209269945e+06  2.9492313686984531e+06  -3.6611675998404012e+06  2.4419260366870840e+06  -5.2595869378515957e+06  4.9210877286911495e+06  -6.5691805428869156e+06  5.6771183627419109e+06  -4.8166590812046770e+06  4.4939117977342512e+06  -5.2944764541125037e+06  4.7262942933699973e+06  -4.1413648327298136e+06  1.8824213670272855e+06  -3.9805981202518963e+06  -3.8161677436239646e+04  -2.1589210405874946e+06  -7.8848821798923230e+06  5.2559856774601284e+06  1.5931682768934860e-01  0.0000000000000000e+00  2.3566109626220673e+07  -1.1797371449126454e+07  1.7811218140244890e+07  -9.1515018253648952e+06  1.9746521176369186e+07  -1.1991096269148042e+07  2.0323535679549381e+07  -1.1452532432174090e+07  1.6597165440940203e+07  -8.9046935489055421e+06  1.1581449598546166e+07  -5.7198483862307286e+06  7.3853513231691970e+06  -5.6387367062608348e+06  8.2742562357510114e+06  -6.1692474500542181e+06  6.9412932607246898e+06  -4.8939031538901431e+06  5.1621750569782685e+06  -5.2944764399073562e+06  5.3549247640272016e+06  -4.3090746587633174e+06  4.1259251136425720e+06  -4.2926025987492073e+06  6.1124274291241150e+06  -5.3971086248084493e+06  6.8573307821232025e+06  -9.3491267286294121e+06  1.6344492659757707e+07  1.0452810239376470e-01  0.0000000000000000e+00  9.6911370657634828e+05  -7.3601425246600471e+06  -1.1254490315061346e+07  3.4184874431290210e+05  -1.3993984669336300e+07  2.5248786823846777e+06  -1.2572275543343378e+07  3.8183305175663796e+06  -1.1452669649182111e+07  2.7789262219500788e+06  -6.3287432253108388e+06  1.5477861428540284e+06  -4.8582972812810782e+06  2.5073644619508362e+06  -5.6452218644032320e+06  2.9613946804736149e+06  -5.1084195461242730e+06  3.6678905754631157e+06  -5.3861058253692891e+06  4.7262942693627384e+06  -4.3090746542619988e+06  3.5287244475364876e+06  -4.0278273368293284e+06  3.5814965586278248e+06  -4.3650064996742839e+06  -1.2251872073743193e+05  -2.1704803189274096e+06  -6.8029398484738665e+06  7.3959142897558650e+06  6.5256172621557196e-02  2.2058050483544975e-08  3.4575061246479250e+07  -2.0312461435725074e+07  2.9677466486929368e+07  -2.1363039509082597e+07  3.2293921569217641e+07  -1.8218033416835167e+07  2.4844686317527834e+07  -1.2572354979198923e+07  2.0323647950322282e+07  -9.6448053065498117e+06  1.2109159116514869e+07  -6.0540379412234109e+06  9.3546409586510677e+06  -5.1295727815282959e+06  8.6874547247862183e+06  -5.0618953247348294e+06  8.0244272307468960e+06  -5.2526081134723350e+06  6.5436596459675515e+06  -4.1413647905436521e+06  4.1259251072463766e+06  -4.0278273283413355e+06  4.2297850711911563e+06  -4.5116080708189746e+06  3.1347938326667459e+06  -3.3658601963730277e+06  3.8623403390877903e+06  -8.4558753427254632e+06  1.7493247449781854e+07  3.8251970328212551e-02  0.0000000000000000e+00  -5.6618281331149284e+06  -1.2453869734745324e+06  -1.8745175047938168e+07  3.3182843299055579e+06  -2.0352848344600983e+07  6.0274898376259869e+06  -1.8218076888974089e+07  2.5249427156859837e+06  -1.1991116191459304e+07  1.2369468138472070e+06  -5.0161596762828510e+06  -1.0427482788043933e+06  -4.5994003682084363e+06  2.0067996059072370e+05  -5.9622202075482802e+06  1.7117824700074932e+06  -5.9039614783610264e+06  1.7949756867195945e+06  -4.3839970818288103e+06  1.8824213359417208e+06  -4.2926026029989896e+06  3.5814965384415085e+06  -4.5116080656706160e+06  2.4961496334103276e+06  -2.9679039516648347e+06  4.4035113411885913e+05  -4.7210361714636041e+06  -3.6087648719964256e+06  1.0472678282817733e+07  2.0647460868539549e-02  0.0000000000000000e+00  6.0435686909581237e+07  -3.3042849179191075e+07  4.5859930769671209e+07  -3.0727402966941353e+07  3.7678875179400600e+07  -2.0352871807124842e+07  3.2293956639228981e+07  -1.3993997722716780e+07  1.9746487956103932e+07  -8.2198255511379084e+06  1.1966521090872787e+07  -4.8327159460557923e+06  1.1469854496834155e+07  -5.1870028422334408e+06  1.1194934003619391e+07  -4.4173870596536305e+06  8.8412060726436861e+06  -3.1919606519900039e+06  6.9737208958581835e+06  -3.9805980261577768e+06  6.1124274084941354e+06  -4.3650064522369597e+06  3.1347938281260151e+06  -2.9679039468520093e+06  1.3229354609119000e+06  -4.6202313139928766e+06  1.2950265094578997e+06  -3.9186859804120706e+06  1.8414258245052595e+07  9.9573017305842736e-03  0.0000000000000000e+00  -1.8303453926368412e+07  3.0043271241867319e+06  -3.0236324242342412e+07  1.1984310471704420e+07  -3.0727414383565366e+07  3.3183027905311710e+06  -2.1363