<?xml version="1.0"?>
<VTKFile type="UnstructuredGrid"  version="0.1"  >
<UnstructuredGrid>
<Piece  NumberOfPoints="961" NumberOfCells="1800">
<Points>
<DataArray  type="Float64"  NumberOfComponents="3"  format="ascii">-1 -1 0  -0.9333333333333333 -1 0  -0.8666666666666667 -1 0  -0.8 -1 0  -0.7333333333333334 -1 0  -0.6666666666666667 -1 0  -0.6 -1 0  -0.5333333333333333 -1 0  -0.4666666666666667 -1 0  -0.4 -1 0  -0.3333333333333334 -1 0  -0.2666666666666667 -1 0  -0.2 -1 0  -0.1333333333333333 -1 0  -0.06666666666666665 -1 0  0 -1 0  0.06666666666666665 -1 0  0.1333333333333333 -1 0  0.2 -1 0  0.2666666666666666 -1 0  0.3333333333333333 -1 0  0.3999999999999999 -1 0  0.4666666666666666 -1 0  0.5333333333333334 -1 0  0.6000000000000001 -1 0  0.6666666666666667 -1 0  0.7333333333333334 -1 0  0.8 -1 0  0.8666666666666667 -1 0  0.9333333333333333 -1 0  1 -1 0  -1 -0.9333333333333333 0  -0.9333333333333333 -0.9333333333333333 0  -0.8666666666666667 -0.9333333333333333 0  -0.8 -0.9333333333333333 0  -0.7333333333333334 -0.9333333333333333 0  -0.6666666666666667 -0.9333333333333333 0  -0.6 -0.9333333333333333 0  -0.5333333333333333 -0.9333333333333333 0  -0.4666666666666667 -0.9333333333333333 0  -0.4 -0.9333333333333333 0  -0.3333333333333334 -0.9333333333333333 0  -0.2666666666666667 -0.9333333333333333 0  -0.2 -0.9333333333333333 0  -0.1333333333333333 -0.9333333333333333 0  -0.06666666666666665 -0.9333333333333333 0  0 -0.9333333333333333 0  0.06666666666666665 -0.9333333333333333 0  0.1333333333333333 -0.9333333333333333 0  0.2 -0.9333333333333333 0  0.2666666666666666 -0.9333333333333333 0  0.3333333333333333 -0.9333333333333333 0  0.3999999999999999 -0.9333333333333333 0  0.4666666666666666 -0.9333333333333333 0  0.5333333333333334 -0.9333333333333333 0  0.6000000000000001 -0.9333333333333333 0  0.6666666666666667 -0.9333333333333333 0  0.7333333333333334 -0.9333333333333333 0  0.8 -0.9333333333333333 0  0.8666666666666667 -0.9333333333333333 0  0.9333333333333333 -0.9333333333333333 0  1 -0.9333333333333333 0  -1 -0.8666666666666667 0  -0.9333333333333333 -0.8666666666666667 0  -0.8666666666666667 -0.8666666666666667 0  -0.8 -0.8666666666666667 0  -0.7333333333333334 -0.8666666666666667 0  -0.6666666666666667 -0.8666666666666667 0  -0.6 -0.8666666666666667 0  -0.5333333333333333 -0.8666666666666667 0  -0.4666666666666667 -0.8666666666666667 0  -0.4 -0.8666666666666667 0  -0.3333333333333334 -0.8666666666666667 0  -0.2666666666666667 -0.8666666666666667 0  -0.2 -0.8666666666666667 0  -0.1333333333333333 -0.8666666666666667 0  -0.06666666666666665 -0.8666666666666667 0  0 -0.8666666666666667 0  0.06666666666666665 -0.8666666666666667 0  0.1333333333333333 -0.8666666666666667 0  0.2 -0.8666666666666667 0  0.2666666666666666 -0.8666666666666667 0  0.3333333333333333 -0.8666666666666667 0  0.3999999999999999 -0.8666666666666667 0  0.4666666666666666 -0.8666666666666667 0  0.5333333333333334 -0.8666666666666667 0  0.6000000000000001 -0.8666666666666667 0  0.6666666666666667 -0.8666666666666667 0  0.7333333333333334 -0.8666666666666667 0  0.8 -0.8666666666666667 0  0.8666666666666667 -0.8666666666666667 0  0.9333333333333333 -0.8666666666666667 0  1 -0.8666666666666667 0  -1 -0.8 0  -0.9333333333333333 -0.8 0  -0.8666666666666667 -0.8 0  -0.8 -0.8 0  -0.7333333333333334 -0.8 0  -0.6666666666666667 -0.8 0  -0.6 -0.8 0  -0.5333333333333333 -0.8 0  -0.4666666666666667 -0.8 0  -0.4 -0.8 0  -0.3333333333333334 -0.8 0  -0.2666666666666667 -0.8 0  -0.2 -0.8 0  -0.1333333333333333 -0.8 0  -0.06666666666666665 -0.8 0  0 -0.8 0  0.06666666666666665 -0.8 0  0.1333333333333333 -0.8 0  0.2 -0.8 0  0.2666666666666666 -0.8 0  0.3333333333333333 -0.8 0  0.3999999999999999 -0.8 0  0.4666666666666666 -0.8 0  0.5333333333333334 -0.8 0  0.6000000000000001 -0.8 0  0.6666666666666667 -0.8 0  0.7333333333333334 -0.8 0  0.8 -0.8 0  0.8666666666666667 -0.8 0  0.9333333333333333 -0.8 0  1 -0.8 0  -1 -0.7333333333333334 0  -0.9333333333333333 -0.7333333333333334 0  -0.8666666666666667 -0.7333333333333334 0  -0.8 -0.7333333333333334 0  -0.7333333333333334 -0.7333333333333334 0  -0.6666666666666667 -0.7333333333333334 0  -0.6 -0.7333333333333334 0  -0.5333333333333333 -0.7333333333333334 0  -0.4666666666666667 -0.7333333333333334 0  -0.4 -0.7333333333333334 0  -0.3333333333333334 -0.7333333333333334 0  -0.2666666666666667 -0.7333333333333334 0  -0.2 -0.7333333333333334 0  -0.1333333333333333 -0.7333333333333334 0  -0.06666666666666665 -0.7333333333333334 0  0 -0.7333333333333334 0  0.06666666666666665 -0.7333333333333334 0  0.1333333333333333 -0.7333333333333334 0  0.2 -0.7333333333333334 0  0.2666666666666666 -0.7333333333333334 0  0.3333333333333333 -0.7333333333333334 0  0.3999999999999999 -0.7333333333333334 0  0.4666666666666666 -0.7333333333333334 0  0.5333333333333334 -0.7333333333333334 0  0.6000000000000001 -0.7333333333333334 0  0.6666666666666667 -0.7333333333333334 0  0.7333333333333334 -0.7333333333333334 0  0.8 -0.7333333333333334 0  0.8666666666666667 -0.7333333333333334 0  0.9333333333333333 -0.7333333333333334 0  1 -0.7333333333333334 0  -1 -0.6666666666666667 0  -0.9333333333333333 -0.6666666666666667 0  -0.8666666666666667 -0.6666666666666667 0  -0.8 -0.6666666666666667 0  -0.7333333333333334 -0.6666666666666667 0  -0.6666666666666667 -0.6666666666666667 0  -0.6 -0.6666666666666667 0  -0.5333333333333333 -0.6666666666666667 0  -0.4666666666666667 -0.6666666666666667 0  -0.4 -0.6666666666666667 0  -0.3333333333333334 -0.6666666666666667 0  -0.2666666666666667 -0.6666666666666667 0  -0.2 -0.6666666666666667 0  -0.1333333333333333 -0.6666666666666667 0  -0.06666666666666665 -0.6666666666666667 0  0 -0.6666666666666667 0  0.06666666666666665 -0.6666666666666667 0  0.1333333333333333 -0.6666666666666667 0  0.2 -0.6666666666666667 0  0.2666666666666666 -0.6666666666666667 0  0.3333333333333333 -0.6666666666666667 0  0.3999999999999999 -0.6666666666666667 0  0.4666666666666666 -0.6666666666666667 0  0.5333333333333334 -0.6666666666666667 0  0.6000000000000001 -0.6666666666666667 0  0.6666666666666667 -0.6666666666666667 0  0.7333333333333334 -0.6666666666666667 0  0.8 -0.6666666666666667 0  0.8666666666666667 -0.6666666666666667 0  0.9333333333333333 -0.6666666666666667 0  1 -0.6666666666666667 0  -1 -0.6 0  -0.9333333333333333 -0.6 0  -0.8666666666666667 -0.6 0  -0.8 -0.6 0  -0.7333333333333334 -0.6 0  -0.6666666666666667 -0.6 0  -0.6 -0.6 0  -0.5333333333333333 -0.6 0  -0.4666666666666667 -0.6 0  -0.4 -0.6 0  -0.3333333333333334 -0.6 0  -0.2666666666666667 -0.6 0  -0.2 -0.6 0  -0.1333333333333333 -0.6 0  -0.06666666666666665 -0.6 0  0 -0.6 0  0.06666666666666665 -0.6 0  0.1333333333333333 -0.6 0  0.2 -0.6 0  0.2666666666666666 -0.6 0  0.3333333333333333 -0.6 0  0.3999999999999999 -0.6 0  0.4666666666666666 -0.6 0  0.5333333333333334 -0.6 0  0.6000000000000001 -0.6 0  0.6666666666666667 -0.6 0  0.7333333333333334 -0.6 0  0.8 -0.6 0  0.8666666666666667 -0.6 0  0.9333333333333333 -0.6 0  1 -0.6 0  -1 -0.5333333333333333 0  -0.9333333333333333 -0.5333333333333333 0  -0.8666666666666667 -0.5333333333333333 0  -0.8 -0.5333333333333333 0  -0.7333333333333334 -0.5333333333333333 0  -0.6666666666666667 -0.5333333333333333 0  -0.6 -0.5333333333333333 0  -0.5333333333333333 -0.5333333333333333 0  -0.4666666666666667 -0.5333333333333333 0  -0.4 -0.5333333333333333 0  -0.3333333333333334 -0.5333333333333333 0  -0.2666666666666667 -0.5333333333333333 0  -0.2 -0.5333333333333333 0  -0.1333333333333333 -0.5333333333333333 0  -0.06666666666666665 -0.5333333333333333 0  0 -0.5333333333333333 0  0.06666666666666665 -0.5333333333333333 0  0.1333333333333333 -0.5333333333333333 0  0.2 -0.5333333333333333 0  0.2666666666666666 -0.5333333333333333 0  0.3333333333333333 -0.5333333333333333 0  0.3999999999999999 -0.5333333333333333 0  0.4666666666666666 -0.5333333333333333 0  0.5333333333333334 -0.5333333333333333 0  0.6000000000000001 -0.5333333333333333 0  0.6666666666666667 -0.5333333333333333 0  0.7333333333333334 -0.5333333333333333 0  0.8 -0.5333333333333333 0  0.8666666666666667 -0.5333333333333333 0  0.9333333333333333 -0.5333333333333333 0  1 -0.5333333333333333 0  -1 -0.4666666666666667 0  -0.9333333333333333 -0.4666666666666667 0  -0.8666666666666667 -0.4666666666666667 0  -0.8 -0.4666666666666667 0  -0.7333333333333334 -0.4666666666666667 0  -0.6666666666666667 -0.4666666666666667 0  -0.6 -0.4666666666666667 0  -0.5333333333333333 -0.4666666666666667 0  -0.4666666666666667 -0.4666666666666667 0  -0.4 -0.4666666666666667 0  -0.3333333333333334 -0.4666666666666667 0  -0.2666666666666667 -0.4666666666666667 0  -0.2 -0.4666666666666667 0  -0.1333333333333333 -0.4666666666666667 0  -0.06666666666666665 -0.4666666666666667 0  0 -0.4666666666666667 0  0.06666666666666665 -0.4666666666666667 0  0.1333333333333333 -0.4666666666666667 0  0.2 -0.4666666666666667 0  0.2666666666666666 -0.4666666666666667 0  0.3333333333333333 -0.4666666666666667 0  0.3999999999999999 -0.4666666666666667 0  0.4666666666666666 -0.4666666666666667 0  0.5333333333333334 -0.4666666666666667 0  0.6000000000000001 -0.4666666666666667 0  0.6666666666666667 -0.4666666666666667 0  0.7333333333333334 -0.4666666666666667 0  0.8 -0.4666666666666667 0  0.8666666666666667 -0.4666666666666667 0  0.9333333333333333 -0.4666666666666667 0  1 -0.4666666666666667 0  -1 -0.4 0  -0.9333333333333333 -0.4 0  -0.8666666666666667 -0.4 0  -0.8 -0.4 0  -0.7333333333333334 -0.4 0  -0.6666666666666667 -0.4 0  -0.6 -0.4 0  -0.5333333333333333 -0.4 0  -0.4666666666666667 -0.4 0  -0.4 -0.4 0  -0.3333333333333334 -0.4 0  -0.2666666666666667 -0.4 0  -0.2 -0.4 0  -0.1333333333333333 -0.4 0  -0.06666666666666665 -0.4 0  0 -0.4 0  0.06666666666666665 -0.4 0  0.1333333333333333 -0.4 0  0.2 -0.4 0  0.2666666666666666 -0.4 0  0.3333333333333333 -0.4 0  0.3999999999999999 -0.4 0  0.4666666666666666 -0.4 0  0.5333333333333334 -0.4 0  0.6000000000000001 -0.4 0  0.6666666666666667 -0.4 0  0.7333333333333334 -0.4 0 
[...]
<PointData  Scalars="f_24"> 
<DataArray  type="Float64"  Name="f_24"  format="ascii">0.0000000000000000e+00  0.0000000000000000e+00  0.0000000000000000e+00  0.0000000000000000e+00  0.0000000000000000e+00  0.0000000000000000e+00  0.0000000000000000e+00  0.0000000000000000e+00  0.0000000000000000e+00  0.0000000000000000e+00  0.0000000000000000e+00  0.0000000000000000e+00  0.0000000000000000e+00  0.0000000000000000e+00  0.0000000000000000e+00  0.0000000000000000e+00  0.0000000000000000e+00  0.0000000000000000e+00  0.0000000000000000e+00  0.0000000000000000e+00  0.0000000000000000e+00  0.0000000000000000e+00  0.0000000000000000e+00  0.0000000000000000e+00  0.0000000000000000e+00  -1.3077718225466705e-07  0.0000000000000000e+00  -3.9159939638178403e-07  0.0000000000000000e+00  0.0000000000000000e+00  1.4405192361380250e+01  0.0000000000000000e+00  1.2941685064588627e+07  1.3969602658684535e+07  2.0346252828610621e+07  1.4364087229366070e+07  1.9822063864271741e+07  1.0880028715581080e+07  1.8659143390954893e+07  7.3469114443498766e+06  1.7306569933758039e+07  4.9106946747455997e+06  1.6815367635178979e+07  2.5087689443493970e+06  1.7546874740530908e+07  7.2320321262113948e+05  1.8390811497312833e+07  1.0325181285201065e+05  1.9624331077787101e+07  5.2619671207597341e+04  2.1630330606013887e+07  8.6136452821229107e+05  2.5373871078370601e+07  1.8378785181891793e+05  3.7738162344227150e+07  -7.1138129264554232e+06  6.6741888013656266e+07  -2.1049028299571782e+07  1.1139155993592854e+08  -1.2906899167717207e+07  2.4328910212875813e+08  1.2578418343888130e+01  0.0000000000000000e+00  1.3969602635532584e+07  1.5096966291270304e+07  5.4702070801097834e+06  1.8656026416116855e+06  -5.2235188867113842e+06  -4.8098159467568230e+06  -1.0120974948511783e+07  -8.1651892865777761e+06  -1.0896828675711200e+07  -9.1625181530708559e+06  -1.1698564792186609e+07  -8.5848312323501389e+06  -1.1972012787476368e+07  -9.0786353726315219e+06  -1.1284852324690849e+07  -9.9255457730861772e+06  -1.1466277792390279e+07  -1.0423045065504761e+07  -1.1773525342741041e+07  -1.1392175993808769e+07  -1.3616741947637800e+07  -8.7703790866752211e+06  -2.3334704685773142e+07  -2.1453164139442779e+06  -3.7702310599150471e+07  2.5228697166226227e+06  -3.2654448831454866e+07  -2.0277279345682248e+07  -1.2906908234981978e+07  1.0931157921076080e+01  1.1335453423678559e-08  2.0346252818027016e+07  5.4702070838115104e+06  1.3373621823505783e+06  -5.8897179998758938e+06  9.2863712053669360e+05  -5.5446982178711267e+06  4.2602091443607537e+06  -2.2896643139536190e+06  7.9265744383512996e+06  -2.0385713493176866e+06  1.1689402194559073e+07  -2.2675375094189057e+06  1.3092173484254571e+07  -1.9049864496149288e+06  1.4316160261639465e+07  -3.1589740717257163e+06  1.6384025944623150e+07  -4.4503673759236345e+06  1.6880597572266877e+07  -5.7434128323502606e+06  2.0140988608790983e+07  -1.2438522558128262e+07  3.3069334808429580e+07  -2.1194288538689740e+07  5.0688091811079033e+07  -3.4454357399241813e+07  6.0432222186113521e+07  -3.2654448207625892e+07  1.1139156169804963e+08  9.4512467595235030e+00  0.0000000000000000e+00  1.4364087157627782e+07  1.8656026631643188e+06  -5.8897180066304831e+06  1.6834535012145058e+05  -5.2136657612675987e+06  7.1486515914641949e+05  -3.3533593348848177e+06  3.5641876407493977e+05  -5.5039324041432450e+06  4.6595522289473977e+05  -6.6341408886337494e+06  -1.4366030038967128e+06  -6.2865152007232923e+06  -2.4404732768278434e+06  -7.2552799970868304e+06  -2.1604221053852355e+06  -7.3356333205269659e+06  -3.6809173120046849e+06  -5.5233424892261475e+06  -3.7763377788092410e+06  -9.7102786690970939e+06  8.5591089368063689e+05  -2.3464877171628769e+07  3.9075341273689428e+06  -3.4365463958103590e+07  1.2979910621842759e+07  -3.4454366938851185e+07  2.5228761556494720e+06  -2.1049035890048385e+07  8.1269471414001249e+00  -1.6425012262677136e-08  1.9822063842892684e+07  -5.2235188453316875e+06  9.2863712771816202e+05  -5.2136657653383715e+06  1.7710525926161886e+06  -2.8413152205613111e+06  4.0045591647253647e+06  -4.4143950863330141e+06  7.2018278523640493e+06  -4.1428723065083507e+06  8.0188108188161738e+06  -3.3753949955654908e+06  1.0024006167307386e+07  -4.7920527342075612e+06  1.2628641211349223e+07  -5.6503607423390700e+06  1.2958794449254544e+07  -5.2062432862071497e+06  1.3590928603247453e+07  -8.8762744154071249e+06  2.2415706924363080e+07  -1.5168885675001880e+07  3.6538004186337255e+07  -2.2267513074916560e+07  4.2327923376716003e+07  -3.4365475482372724e+07  5.0688102666237630e+07  -3.7702311773524411e+07  6.6741887412965655e+07  6.9469484767458782e+00  0.0000000000000000e+00  1.0880028611402299e+07  -4.8098158844910944e+06  -5.5446982765121628e+06  7.1486517233358941e+05  -2.8413152259184364e+06  3.2815803612063602e+06  -4.6332437361248266e+06  4.2806260819704011e+06  -4.6082247356733587e+06  2.2135179864540836e+06  -4.8231943767671268e+06  2.0478326953433794e+06  -6.5578398070910191e+06  1.9361359752212022e+06  -6.6301852197557567e+06  2.5065577444252666e+05  -5.0990262097958270e+06  -1.1154960862900293e+06  -5.5255471539465431e+06  1.4959076886313383e+06  -1.3201821506068688e+07  3.0990020284869112e+06  -1.9938244564638596e+07  7.2123802502534604e+06  -2.2267540685717721e+07  3.9075554621130205e+06  -2.1194296664263945e+07  -2.1453173345916462e+06  -7.1138155087220697e+06  5.9003667912213515e+00  2.4952850836343768e-09  1.8659143378721092e+07  -1.0120974886861308e+07  4.2602091386097409e+06  -3.3533593111945805e+06  4.0045591698587108e+06  -4.6332437418454411e+06  4.9713750223020744e+06  -4.3640222772135809e+06  4.6654530554506555e+06  -4.5979448258354068e+06  7.3119705963451853e+06  -5.8612353707558867e+06  8.9560343370741438e+06  -5.6516662771238759e+06  9.6945441639627721e+06  -5.7270038552754540e+06  1.0440859491792731e+07  -6.7545450173253976e+06  1.3527570294189621e+07  -1.0734997673468113e+07  2.2751367967215538e+07  -1.3897918283804068e+07  2.7980454031013556e+07  -1.9938292526954923e+07  3.6538043717058837e+07  -2.3464885130596880e+07  3.3069327770525228e+07  -2.3334697067488037e+07  3.7738161117916614e+07  4.9767449822234688e+00  0.0000000000000000e+00  7.3469113071167720e+06  -8.1651891981593780e+06  -2.2896644103056770e+06  3.5641879909392406e+05  -4.4143951391062625e+06  4.2806261044737399e+06  -4.3640222867137408e+06  3.9868602264627190e+06  -4.7961077533469247e+06  5.2768433655639375e+06  -6.0120696368570821e+06  4.0934622020182814e+06  -5.7014236787279435e+06  3.3051976681844187e+06  -6.2997167822785219e+06  2.7991302109941519e+06  -5.4220157284937706e+06  1.7274114053655860e+06  -7.0646695276217414e+06  3.1032422982194182e+06  -1.2766788717983270e+07  4.3158917443874143e+06  -1.3898007672860628e+07  3.0990739034929415e+06  -1.5168901565679565e+07  8.5589397436360421e+05  -1.2438509662465330e+07  -8.7703805359030478e+06  1.8378261075074293e+05  4.1660527676635715e+00  8.6504996208367129e-09  1.7306569933146775e+07  -1.0896828585318452e+07  7.9265744181873361e+06  -5.5039323704604125e+06  7.2018278758088052e+06  -4.6082247310661962e+06  4.6654530626074700e+06  -4.7961077583511351e+06  5.9763585892862277e+06  -5.9113285000898289e+06  5.7605885689405147e+06  -5.4636523823322076e+06  7.7461223836296350e+06  -6.8869034272286724e+06  9.2341116817194242e+06  -6.2959619776897626e+06  8.2421485659405841e+06  -6.3850665719479769e+06  1.2927103104633549e+07  -9.9391360494066887e+06  1.8526272443765890e+07  -1.2766941526818784e+07  2.2751493476585932e+07  -1.3201843547308875e+07  2.2415670197494928e+07  -9.7102461912663542e+06  2.0140983213379603e+07  -1.3616747158448219e+07  2.5373874515477352e+07  3.4586865198636314e+00  0.0000000000000000e+00  4.9106945107627790e+06  -9.1625180466945060e+06  -2.0385715064356164e+06  4.6595531196939101e+05  -4.1428724106985382e+06  2.2135180208175643e+06  -4.5979448728205701e+06  5.2768433923342610e+06  -5.9113285159669938e+06  5.0156863048288254e+06  -5.3760868694588058e+06  6.3362917900820775e+06  -7.3309265372978775e+06  5.4932062381614363e+06  -5.8698178722807420e+06  2.7268604580224254e+06  -4.0853122361565572e+06  3.2902354524363722e+06  -9.3796116333131641e+06  5.2374473637503386e+06  -9.9393901669686884e+06  3.1034526210083668e+06  -1.0735032704977877e+07  1.4958366415628425e+06  -8.8762141233874690e+06  -3.7763478207710641e+06  -5.7434293315925635e+06  -1.1392164687986268e+07  8.6136108073904121e+05  2.8454700960751129e+00  -7.9196399083078995e-09  1.6815367650829144e+07  -1.1698564694622939e+07  1.1689402195979806e+07  -6.6341408448413555e+06  8.0188108297755066e+06  -4.8231943509233752e+06  7.3119706305600079e+06  -6.0120696521963850e+06  5.7605885867996179e+06  -5.3760868756223414e+06  7.1165729674586505e+06  -7.7062038185541816e+06  6.8437173052824643e+06  -5.4748902546693394e+06  6.4724312263391679e+06  -5.0945202141681993e+06  7.5119712753936592e+06  -8.1044530838675080e+06  1.3519079130001370e+07  -9.3800063642455414e+06  1.2927437127989145e+07  -7.0647177499929294e+06  1.3527441184865657e+07  -5.5254352039409205e+06  1.3590910038254481e+07  -5.5233724855921762e+06  1.6880620486778840e+07  -1.1773526626056068e+07  2.1630326732630499e+07  2.3176531774412781e+00  0.0000000000000000e+00  2.5087687324450300e+06  -8.5848310836696811e+06  -2.2675377354234662e+06  -1.4366028894393453e+06  -3.3753951411044812e+06  2.0478327775001370e+06  -5.8612354934299048e+06  4.0934622567997747e+06  -5.4636524358687485e+06  6.3362918245017435e+06  -7.7062038470575782e+06  6.0778144940407602e+06  -4.7850838965831371e+06  5.3736433828365998e+06  -6.4054175789043326e+06  4.5961386342218090e+06  -6.0017922661083862e+06  5.5661641971593369e+06  -8.1050277137923129e+06  3.2907334822486890e+06  -6.3851317738056239e+06  1.7271931898144498e+06  -6.7543567029067371e+06  -1.1155255654171524e+06  -5.2063028291576765e+06  -3.6808719095333409e+06  -4.4503725088473596e+06  -1.0423055660570027e+07  5.2622827819950180e+04  1.8669129300348803e+00  3.1147575057793564e-06  1.7546874792871885e+07  -1.1972012686324257e+07  1.3092173489588212e+07  -6.2865151235802593e+06  1.0024006192270802e+07  -6.5578398002179638e+06  8.9560343965861350e+06  -5.7014236806772621e+06  7.7461224374990286e+06  -7.3309265844514212e+06  6.8437173509021904e+06  -4.7850839068392310e+06  6.1247781546532521e+06  -8.0406828281648243e+06  6.9341741059276974e+06  -4.1651088233637707e+06  5.9059483802135773e+06  -6.0025617095889626e+06  7.5126604079426536e+06  -4.0853915340731046e+06  8.2418061175190099e+06  -5.4217166286803568e+06  1.0440816545816572e+07  -5.0991306764962990e+06  1.2958875944149250e+07  -7.3356390420662444e+06  1.6384001086550353e+07  -1.1466263648321558e+07  1.9624331475763567e+07  1.4853531743393085e+00  0.0000000000000000e+00  7.2320293012946437e+05  -9.0786351922644284e+06  -1.9049867315538644e+06  -2.4404731213890878e+06  -4.7920529780105865e+06  1.9361361284264312e+06  -5.6516664646058558e+06  3.3051977730625258e+06  -6.8869035874137497e+06  5.4932063399885604e+06  -5.4748903322844207e+06  5.3736434232718199e+06  -8.0406828802167792e+06  6.9071600100144809e+06  -2.5250196175933271e+06  7.7770271178374358e+05  -4.1660506627692599e+06  4.5970150917139268e+06  -5.0946111558470661e+06  2.7263673166616927e+06  -6.2955258823873959e+06  2.7990748372143684e+06  -5.7271794772214741e+06  2.5079299779463076e+05  -5.6503705214821408e+06  -2.1604694733635811e+06  -3.1589474227385377e+06  -9.9255431897861753e+06  1.0324343274842128e+05  1.1655045513523654e+00  7.4976577064942699e-09  1.8390811586312771e+07  -1.1284852192076083e+07  1.4316160281844525e+07  -7.2552799319231585e+06  1.2628641295758119e+07  -6.6301852228899132e+06  9.6945442521369271e+06  -6.2997168247320708e+06  9.2341118157154731e+06  -5.8698179395313459e+06  6.4724313255619267e+06  -6.4054176928667594e+06  6.9341742554795612e+06  -2.5250196806254047e+06  -2.5970594694564259e+05  -2.5260633666411121e+06  6.9351901758332932e+06  -6.4055142842797721e+06  6.4717854270283906e+06  -5.8692327042189371e+06  9.2340475209351722e+06  -6.2999855376840476e+06  9.6947563517175876e+06  -6.6301952420237549e+06  1.2628557091455953e+07  -7.2552290899474202e+06  1.4316165158513600e+07  -1.1284870483383900e+07  1.8390817717205118e+07  9.0032452258626561e-01  0.0000000000000000e+00  1.0325143989766882e+05  -9.9255455447985325e+06  -3.1589744760702038e+06  -2.1604218473958229e+06  -5.6503611117847702e+06  2.5065599723708007e+05  -5.7270041629062500e+06  2.7991304431564249e+06  -6.2959622786484193e+06  2.7268606562816813e+06  -5.0945204714170704e+06  4.5961388659136733e+06  -4.1651090058114398e+06  7.7770271174873144e+05  -2.5260633036059453e+06  6.9082279635398900e+06  -8.0407819051036723e+06  5.3728811868289718e+06  -5.4741763441087399e+06  5.4931390204941537e+06  -6.8872798789425455e+06  3.3054984747233107e+06  -5.6516749378337432e+06  1.9359999950858711e+06  -4.7919700988441035e+06  -2.4404627904173126e+06  -1.9050245525180635e+06  -9.0786199884496555e+06  7.2320501444098004e+05  6.8319737006763415e-01  1.5406718191165367e-08  1.9624331218287554e+07  -1.1466277648417721e+07  1.6384026042712554e+07  -7.3356332904681582e+06  1.2958794595068373e+07  -5.0990262440861277e+06  1.0440859690946031e+07  -5.4220158629016848e+06  8.2421487897790289e+06  -4.0853123599355365e+06  7.5119714828193076e+06  -6.0017923726254012e+06  5.9059483801067155e+06  -4.1660504801974343e+06  6.9351900262973346e+06  -8.0407818530408898e+06  6.1239720821448974e+06  -4.7842939061920922e+06  6.8436508485071743e+06  -7.3313998636789927e+06  7.7465097328976383e+06  -5.7014248616762515e+06  8.9558331240846030e+06  -6.5577145408075061e+06  1.0024024909899542e+07  -6.2865790778238298e+06  1.3092200454837210e+07  -1.1972003634307118e+07  1.7546864749096077e+07  5.0793418212385788e-01  0.0000000000000000e+00  5.2619131602750254e+04  -1.0423044713233434e+07  -4.4503679802821279e+06  -3.6809169407143760e+06  -5.2062438025321150e+06  -1.1154957444377872e+06  -6.7545454972238569e+06  1.7274117190825031e+06  -6.3850669176676860e+06  3.2902356262205360e+06  -8.1044532911093729e+06  5.5661641970975660e+06  -6.0025616028896775e+06  4.5970148598800693e+06  -6.4055141703985501e+06  5.3728811463705162e+06  -4.7842938959503109e+06  6.0777489369611153e+06  -7.7067360655057942e+06  6.3367433557908591e+06  -5.4636444858039226e+06  4.0931939501029872e+06  -5.8610658841208015e+06  2.0478643510945444e+06  -3.3754955667303307e+06  -1.4365596450081631e+06  -2.2675206567289606e+06  -8.5848549892338403e+06  2.5087735443158392e+06  3.6877292445133447e-01  -8.2298557378547960e-09  2.1630330845300395e+07  -1.1773525184639523e+07  1.6880597737888794e+07  -5.5233424380296003e+06  1.3590928797090886e+07  -5.5255471933583664e+06  1.3527570509431623e+07  -7.0646695432468569e+06  1.2927103192870554e+07  -9.3796115626437254e+06  1.3519079129858801e+07  -8.1050275064945584e+06  7.5126602004347891e+06  -5.0946108984087771e+06  6.4717853279533349e+06  -5.4741762664166586e+06  6.8436508029219033e+06  -7.7067360369918654e+06  7.1170482902815407e+06  -5.3760717883715108e+06  5.7602685041226251e+06  -6.0118611629695622e+06  7.3120171863088822e+06  -4.8233346406664224e+06  8.0188721340330103e+06  -6.6341104114533402e+06  1.1689359003937420e+07  -1.1698553141373683e+07  1.6815374203491990e+07  2.6037829797897322e-01  0.0000000000000000e+00  8.6136372476274846e+05  -1.1392175511063678e+07  -5.7434136176993512e+06  -3.7763373656308311e+06  -8.8762750251442865e+06  1.4959080073523752e+06  -1.0734998093692996e+07  3.1032424141644374e+06  -9.9391362437575758e+06  5.2374473632042967e+06  -9.3800064342859555e+06  3.2907333084456930e+06  -4.0853914103852604e+06  2.7263671181187783e+06  -5.8692326372333420e+06  5.4931389184997352e+06  -7.3313998166155396e+06  6.3367433213320542e+06  -5.3760717822161773e+06  5.0153466362936348e+06  -5.9110977939255452e+06  5.2769027932284065e+06  -4.5981219386990480e+06  2.2135967540461621e+06  -4.1428276370128128e+06  4.6589007726554113e+05  -2.0385550162143402e+06  -9.1625013157220464e+06  4.9106822010253770e+06  1.7784188100469450e-01  0.0000000000000000e+00  2.5373871376724869e+07  -1.3616741614361797e+07  2.0140988741140574e+07  -9.7102784940836728e+06  2.2415707099169783e+07  -1.3201821405831009e+07  2.2751368058657628e+07  -1.2766788536029134e+07  1.8526272443492077e+07  -9.9393899716118146e+06  1.2927437038847854e+07  -6.3851314280204829e+06  8.2418058940241169e+06  -6.2955255809241971e+06  9.2340473873904478e+06  -6.8872797184162810e+06  7.7465096792273223e+06  -5.4636444321606513e+06  5.7602684863064373e+06  -5.9110977780436194e+06  5.9764230807561604e+06  -4.7963065339595024e+06  4.6655441597170783e+06  -4.6081653848522194e+06  7.2017401740579084e+06  -5.5039096237055501e+06  7.9266026937657194e+06  -1.0896852914268754e+07  1.7306572800566021e+07  1.1668204354791575e-01  0.0000000000000000e+00  1.8378673740623042e+05  -8.7703785182620827e+06  -1.2438523530934434e+07  8.5591129534787359e+05  -1.5168886334164483e+07  3.0990022239558799e+06  -1.3897918639932081e+07  4.3158917433658782e+06  -1.2766941708362313e+07  3.1034525046431096e+06  -7.0647177333466643e+06  1.7271928758273399e+06  -5.4217164949996397e+06  2.7990746041531218e+06  -6.2999854960361309e+06  3.3054983692177935e+06  -5.7014248601504192e+06  4.0931938950797818e+06  -6.0118611477547418e+06  5.2769027664142773e+06  -4.7963065289598741e+06  3.9869558293245682e+06  -4.3639542982691098e+06  4.2805216480786456e+06  -4.4143685923274923e+06  3.5645964509288693e+05  -2.2897029242622373e+06  -8.1651845694905650e+06  7.3469199088678220e+06  7.2844034459522894e-02  1.1029025241772487e-08  3.7738162560773671e+07  -2.3334704043820366e+07  3.3069334984954093e+07  -2.3464876906441826e+07  3.6538004381031834e+07  -1.9938244282635987e+07  2.7980454028757177e+07  -1.3898007312463904e+07  2.2751493384057339e+07  -1.0735032285188930e+07  1.3527440968738997e+07  -6.7543562222540341e+06  1.0440816348084737e+07  -5.7271791679747924e+06  9.6947562650113869e+06  -5.6516747491729790e+06  8.9558330654149912e+06  -5.8610657609129660e+06  7.3120171523910556e+06  -4.5981218915699758e+06  4.6655441526062945e+06  -4.3639542887647217e+06  4.9712642682666322e+06  -4.6332147323816270e+06  4.0046094486567052e+06  -3.3534085377412518e+06  4.2602135163711784e+06  -1.0120955056724144e+07  1.8659132908511385e+07  4.2699835629227099e-02  0.0000000000000000e+00  -7.1138145798570216e+06  -2.1453155771124964e+06  -2.1194289843157697e+07  3.9075344720836580e+06  -2.2267513775491260e+07  7.2123802514431076e+06  -1.9938292809602480e+07  3.0990737029178273e+06  -1.3201843644694459e+07  1.4958363242633017e+06  -5.5254351641263328e+06  -1.1155259090670391e+06  -5.0991306449601185e+06  2.5079277200270514e+05  -6.6301952416141387e+06  1.9359998396491269e+06  -6.5577145493379990e+06  2.0478642678103780e+06  -4.8233346671967385e+06  2.2135967193150460e+06  -4.6081653896275386e+06  4.2805216255252380e+06  -4.6332147266656058e+06  3.2816342620520941e+06  -2.8413712270168308e+06  7.1486942286584002e+05  -5.5446703919757195e+06  -4.8098340592991114e+06  1.0880027513325179e+07  2.3048307778208380e-02  0.0000000000000000e+00  6.6741888021715820e+07  -3.7702309595828444e+07  5.0688092126853518e+07  -3.4365463380451925e+07  4.2327923364093885e+07  -2.2267539966202609e+07  3.6538043528981522e+07  -1.5168900905390384e+07  2.2415670016134929e+07  -8.8762135161266103e+06  1.3590909845397923e+07  -5.2063023085706038e+06  1.2958875804016301e+07  -5.6503701461333772e+06  1.2628557012390835e+07  -4.7919698506423840e+06  1.0024024888286896e+07  -3.3754954188302592e+06  8.0188721246081907e+06  -4.1428275319227888e+06  7.2017401510777967e+06  -4.4143685393539555e+06  4.0046094435795671e+06  -2.8413712216552305e+06  1.7710566667010458e+06  -5.2136324191137645e+06  9.2861304744492157e+05  -5.2235203523764033e+06  1.9822072653626814e+07  1.1115117562793392e-02  0.0000000000000000e+00  -2.1049031139579367e+07  2.5228708552685226e+06  -3.4454358806779429e+07  1.2979910604286999e+07  -3.4365476124454126e+07  3.9075550794304670e+06  -2.346488538771