<?xml version="1.0"?>
<VTKFile type="UnstructuredGrid"  version="0.1"  >
<UnstructuredGrid>
<Piece  NumberOfPoints="961" NumberOfCells="1800">
<Points>
<DataArray  type="Float64"  NumberOfComponents="3"  format="ascii">-1 -1 0  -0.9333333333333333 -1 0  -0.8666666666666667 -1 0  -0.8 -1 0  -0.7333333333333334 -1 0  -0.6666666666666667 -1 0  -0.6 -1 0  -0.5333333333333333 -1 0  -0.4666666666666667 -1 0  -0.4 -1 0  -0.3333333333333334 -1 0  -0.2666666666666667 -1 0  -0.2 -1 0  -0.1333333333333333 -1 0  -0.06666666666666665 -1 0  0 -1 0  0.06666666666666665 -1 0  0.1333333333333333 -1 0  0.2 -1 0  0.2666666666666666 -1 0  0.3333333333333333 -1 0  0.3999999999999999 -1 0  0.4666666666666666 -1 0  0.5333333333333334 -1 0  0.6000000000000001 -1 0  0.6666666666666667 -1 0  0.7333333333333334 -1 0  0.8 -1 0  0.8666666666666667 -1 0  0.9333333333333333 -1 0  1 -1 0  -1 -0.9333333333333333 0  -0.9333333333333333 -0.9333333333333333 0  -0.8666666666666667 -0.9333333333333333 0  -0.8 -0.9333333333333333 0  -0.7333333333333334 -0.9333333333333333 0  -0.6666666666666667 -0.9333333333333333 0  -0.6 -0.9333333333333333 0  -0.5333333333333333 -0.9333333333333333 0  -0.4666666666666667 -0.9333333333333333 0  -0.4 -0.9333333333333333 0  -0.3333333333333334 -0.9333333333333333 0  -0.2666666666666667 -0.9333333333333333 0  -0.2 -0.9333333333333333 0  -0.1333333333333333 -0.9333333333333333 0  -0.06666666666666665 -0.9333333333333333 0  0 -0.9333333333333333 0  0.06666666666666665 -0.9333333333333333 0  0.1333333333333333 -0.9333333333333333 0  0.2 -0.9333333333333333 0  0.2666666666666666 -0.9333333333333333 0  0.3333333333333333 -0.9333333333333333 0  0.3999999999999999 -0.9333333333333333 0  0.4666666666666666 -0.9333333333333333 0  0.5333333333333334 -0.9333333333333333 0  0.6000000000000001 -0.9333333333333333 0  0.6666666666666667 -0.9333333333333333 0  0.7333333333333334 -0.9333333333333333 0  0.8 -0.9333333333333333 0  0.8666666666666667 -0.9333333333333333 0  0.9333333333333333 -0.9333333333333333 0  1 -0.9333333333333333 0  -1 -0.8666666666666667 0  -0.9333333333333333 -0.8666666666666667 0  -0.8666666666666667 -0.8666666666666667 0  -0.8 -0.8666666666666667 0  -0.7333333333333334 -0.8666666666666667 0  -0.6666666666666667 -0.8666666666666667 0  -0.6 -0.8666666666666667 0  -0.5333333333333333 -0.8666666666666667 0  -0.4666666666666667 -0.8666666666666667 0  -0.4 -0.8666666666666667 0  -0.3333333333333334 -0.8666666666666667 0  -0.2666666666666667 -0.8666666666666667 0  -0.2 -0.8666666666666667 0  -0.1333333333333333 -0.8666666666666667 0  -0.06666666666666665 -0.8666666666666667 0  0 -0.8666666666666667 0  0.06666666666666665 -0.8666666666666667 0  0.1333333333333333 -0.8666666666666667 0  0.2 -0.8666666666666667 0  0.2666666666666666 -0.8666666666666667 0  0.3333333333333333 -0.8666666666666667 0  0.3999999999999999 -0.8666666666666667 0  0.4666666666666666 -0.8666666666666667 0  0.5333333333333334 -0.8666666666666667 0  0.6000000000000001 -0.8666666666666667 0  0.6666666666666667 -0.8666666666666667 0  0.7333333333333334 -0.8666666666666667 0  0.8 -0.8666666666666667 0  0.8666666666666667 -0.8666666666666667 0  0.9333333333333333 -0.8666666666666667 0  1 -0.8666666666666667 0  -1 -0.8 0  -0.9333333333333333 -0.8 0  -0.8666666666666667 -0.8 0  -0.8 -0.8 0  -0.7333333333333334 -0.8 0  -0.6666666666666667 -0.8 0  -0.6 -0.8 0  -0.5333333333333333 -0.8 0  -0.4666666666666667 -0.8 0  -0.4 -0.8 0  -0.3333333333333334 -0.8 0  -0.2666666666666667 -0.8 0  -0.2 -0.8 0  -0.1333333333333333 -0.8 0  -0.06666666666666665 -0.8 0  0 -0.8 0  0.06666666666666665 -0.8 0  0.1333333333333333 -0.8 0  0.2 -0.8 0  0.2666666666666666 -0.8 0  0.3333333333333333 -0.8 0  0.3999999999999999 -0.8 0  0.4666666666666666 -0.8 0  0.5333333333333334 -0.8 0  0.6000000000000001 -0.8 0  0.6666666666666667 -0.8 0  0.7333333333333334 -0.8 0  0.8 -0.8 0  0.8666666666666667 -0.8 0  0.9333333333333333 -0.8 0  1 -0.8 0  -1 -0.7333333333333334 0  -0.9333333333333333 -0.7333333333333334 0  -0.8666666666666667 -0.7333333333333334 0  -0.8 -0.7333333333333334 0  -0.7333333333333334 -0.7333333333333334 0  -0.6666666666666667 -0.7333333333333334 0  -0.6 -0.7333333333333334 0  -0.5333333333333333 -0.7333333333333334 0  -0.4666666666666667 -0.7333333333333334 0  -0.4 -0.7333333333333334 0  -0.3333333333333334 -0.7333333333333334 0  -0.2666666666666667 -0.7333333333333334 0  -0.2 -0.7333333333333334 0  -0.1333333333333333 -0.7333333333333334 0  -0.06666666666666665 -0.7333333333333334 0  0 -0.7333333333333334 0  0.06666666666666665 -0.7333333333333334 0  0.1333333333333333 -0.7333333333333334 0  0.2 -0.7333333333333334 0  0.2666666666666666 -0.7333333333333334 0  0.3333333333333333 -0.7333333333333334 0  0.3999999999999999 -0.7333333333333334 0  0.4666666666666666 -0.7333333333333334 0  0.5333333333333334 -0.7333333333333334 0  0.6000000000000001 -0.7333333333333334 0  0.6666666666666667 -0.7333333333333334 0  0.7333333333333334 -0.7333333333333334 0  0.8 -0.7333333333333334 0  0.8666666666666667 -0.7333333333333334 0  0.9333333333333333 -0.7333333333333334 0  1 -0.7333333333333334 0  -1 -0.6666666666666667 0  -0.9333333333333333 -0.6666666666666667 0  -0.8666666666666667 -0.6666666666666667 0  -0.8 -0.6666666666666667 0  -0.7333333333333334 -0.6666666666666667 0  -0.6666666666666667 -0.6666666666666667 0  -0.6 -0.6666666666666667 0  -0.5333333333333333 -0.6666666666666667 0  -0.4666666666666667 -0.6666666666666667 0  -0.4 -0.6666666666666667 0  -0.3333333333333334 -0.6666666666666667 0  -0.2666666666666667 -0.6666666666666667 0  -0.2 -0.6666666666666667 0  -0.1333333333333333 -0.6666666666666667 0  -0.06666666666666665 -0.6666666666666667 0  0 -0.6666666666666667 0  0.06666666666666665 -0.6666666666666667 0  0.1333333333333333 -0.6666666666666667 0  0.2 -0.6666666666666667 0  0.2666666666666666 -0.6666666666666667 0  0.3333333333333333 -0.6666666666666667 0  0.3999999999999999 -0.6666666666666667 0  0.4666666666666666 -0.6666666666666667 0  0.5333333333333334 -0.6666666666666667 0  0.6000000000000001 -0.6666666666666667 0  0.6666666666666667 -0.6666666666666667 0  0.7333333333333334 -0.6666666666666667 0  0.8 -0.6666666666666667 0  0.8666666666666667 -0.6666666666666667 0  0.9333333333333333 -0.6666666666666667 0  1 -0.6666666666666667 0  -1 -0.6 0  -0.9333333333333333 -0.6 0  -0.8666666666666667 -0.6 0  -0.8 -0.6 0  -0.7333333333333334 -0.6 0  -0.6666666666666667 -0.6 0  -0.6 -0.6 0  -0.5333333333333333 -0.6 0  -0.4666666666666667 -0.6 0  -0.4 -0.6 0  -0.3333333333333334 -0.6 0  -0.2666666666666667 -0.6 0  -0.2 -0.6 0  -0.1333333333333333 -0.6 0  -0.06666666666666665 -0.6 0  0 -0.6 0  0.06666666666666665 -0.6 0  0.1333333333333333 -0.6 0  0.2 -0.6 0  0.2666666666666666 -0.6 0  0.3333333333333333 -0.6 0  0.3999999999999999 -0.6 0  0.4666666666666666 -0.6 0  0.5333333333333334 -0.6 0  0.6000000000000001 -0.6 0  0.6666666666666667 -0.6 0  0.7333333333333334 -0.6 0  0.8 -0.6 0  0.8666666666666667 -0.6 0  0.9333333333333333 -0.6 0  1 -0.6 0  -1 -0.5333333333333333 0  -0.9333333333333333 -0.5333333333333333 0  -0.8666666666666667 -0.5333333333333333 0  -0.8 -0.5333333333333333 0  -0.7333333333333334 -0.5333333333333333 0  -0.6666666666666667 -0.5333333333333333 0  -0.6 -0.5333333333333333 0  -0.5333333333333333 -0.5333333333333333 0  -0.4666666666666667 -0.5333333333333333 0  -0.4 -0.5333333333333333 0  -0.3333333333333334 -0.5333333333333333 0  -0.2666666666666667 -0.5333333333333333 0  -0.2 -0.5333333333333333 0  -0.1333333333333333 -0.5333333333333333 0  -0.06666666666666665 -0.5333333333333333 0  0 -0.5333333333333333 0  0.06666666666666665 -0.5333333333333333 0  0.1333333333333333 -0.5333333333333333 0  0.2 -0.5333333333333333 0  0.2666666666666666 -0.5333333333333333 0  0.3333333333333333 -0.5333333333333333 0  0.3999999999999999 -0.5333333333333333 0  0.4666666666666666 -0.5333333333333333 0  0.5333333333333334 -0.5333333333333333 0  0.6000000000000001 -0.5333333333333333 0  0.6666666666666667 -0.5333333333333333 0  0.7333333333333334 -0.5333333333333333 0  0.8 -0.5333333333333333 0  0.8666666666666667 -0.5333333333333333 0  0.9333333333333333 -0.5333333333333333 0  1 -0.5333333333333333 0  -1 -0.4666666666666667 0  -0.9333333333333333 -0.4666666666666667 0  -0.8666666666666667 -0.4666666666666667 0  -0.8 -0.4666666666666667 0  -0.7333333333333334 -0.4666666666666667 0  -0.6666666666666667 -0.4666666666666667 0  -0.6 -0.4666666666666667 0  -0.5333333333333333 -0.4666666666666667 0  -0.4666666666666667 -0.4666666666666667 0  -0.4 -0.4666666666666667 0  -0.3333333333333334 -0.4666666666666667 0  -0.2666666666666667 -0.4666666666666667 0  -0.2 -0.4666666666666667 0  -0.1333333333333333 -0.4666666666666667 0  -0.06666666666666665 -0.4666666666666667 0  0 -0.4666666666666667 0  0.06666666666666665 -0.4666666666666667 0  0.1333333333333333 -0.4666666666666667 0  0.2 -0.4666666666666667 0  0.2666666666666666 -0.4666666666666667 0  0.3333333333333333 -0.4666666666666667 0  0.3999999999999999 -0.4666666666666667 0  0.4666666666666666 -0.4666666666666667 0  0.5333333333333334 -0.4666666666666667 0  0.6000000000000001 -0.4666666666666667 0  0.6666666666666667 -0.4666666666666667 0  0.7333333333333334 -0.4666666666666667 0  0.8 -0.4666666666666667 0  0.8666666666666667 -0.4666666666666667 0  0.9333333333333333 -0.4666666666666667 0  1 -0.4666666666666667 0  -1 -0.4 0  -0.9333333333333333 -0.4 0  -0.8666666666666667 -0.4 0  -0.8 -0.4 0  -0.7333333333333334 -0.4 0  -0.6666666666666667 -0.4 0  -0.6 -0.4 0  -0.5333333333333333 -0.4 0  -0.4666666666666667 -0.4 0  -0.4 -0.4 0  -0.3333333333333334 -0.4 0  -0.2666666666666667 -0.4 0  -0.2 -0.4 0  -0.1333333333333333 -0.4 0  -0.06666666666666665 -0.4 0  0 -0.4 0  0.06666666666666665 -0.4 0  0.1333333333333333 -0.4 0  0.2 -0.4 0  0.2666666666666666 -0.4 0  0.3333333333333333 -0.4 0  0.3999999999999999 -0.4 0  0.4666666666666666 -0.4 0  0.5333333333333334 -0.4 0  0.6000000000000001 -0.4 0  0.6666666666666667 -0.4 0  0.7333333333333334 -0.4 0 
[...]
<PointData  Scalars="f_24"> 
<DataArray  type="Float64"  Name="f_24"  format="ascii">0.0000000000000000e+00  0.0000000000000000e+00  0.0000000000000000e+00  0.0000000000000000e+00  0.0000000000000000e+00  0.0000000000000000e+00  0.0000000000000000e+00  0.0000000000000000e+00  0.0000000000000000e+00  0.0000000000000000e+00  0.0000000000000000e+00  0.0000000000000000e+00  0.0000000000000000e+00  0.0000000000000000e+00  0.0000000000000000e+00  0.0000000000000000e+00  0.0000000000000000e+00  0.0000000000000000e+00  0.0000000000000000e+00  0.0000000000000000e+00  0.0000000000000000e+00  0.0000000000000000e+00  0.0000000000000000e+00  0.0000000000000000e+00  0.0000000000000000e+00  5.3492978227152751e-08  0.0000000000000000e+00  -6.1187405684653757e-07  0.0000000000000000e+00  0.0000000000000000e+00  1.5449686660121063e+01  0.0000000000000000e+00  1.1958399917790439e+07  1.2100321296469431e+07  1.8006488712537594e+07  1.1508666649380919e+07  1.6882305232664991e+07  7.6565889398686569e+06  1.5630345020177618e+07  4.0830148686968712e+06  1.4369194827759249e+07  1.7328702894219325e+06  1.4031963054000568e+07  -6.2788957619134395e+05  1.4925264019575294e+07  -2.4345407003642656e+06  1.5855823438853836e+07  -3.1285027520053033e+06  1.7114828043427289e+07  -3.3360884340102645e+06  1.9110417770007923e+07  -2.7010279179607346e+06  2.2871586517599992e+07  -3.5861105780734397e+06  3.5743861057767436e+07  -1.1280658747905497e+07  6.6466842310511231e+07  -2.5598596698569264e+07  1.1442054753251037e+08  -1.6122192089036457e+07  2.5545004149459571e+08  1.3490456581058131e+01  0.0000000000000000e+00  1.2100321265137076e+07  1.2481756065344281e+07  2.7147030751303835e+06  -4.1778953936251876e+05  -6.9125358406274607e+06  -5.7152347487545395e+06  -1.0504840147985687e+07  -7.9318887754182192e+06  -1.0299071145648679e+07  -8.1811561895001093e+06  -1.0570633851778990e+07  -7.1395251103244452e+06  -1.0578999409979058e+07  -7.4535321493455842e+06  -9.7670392240196485e+06  -8.2959586807123329e+06  -1.0030103665984195e+07  -8.9426157450072560e+06  -1.0615125059304278e+07  -1.0382236609318554e+07  -1.3120526101461193e+07  -8.5030925961526874e+06  -2.4438670853169855e+07  -2.9038406787838358e+06  -4.1283411601939432e+07  3.6258082852482883e+05  -3.7621706416146360e+07  -2.4110463997953281e+07  -1.6122201782619752e+07  1.1723756298245705e+01  0.0000000000000000e+00  1.8006488689687330e+07  2.7147030786250946e+06  -5.3918685234030499e+05  -6.7096450209016530e+06  1.2321251556424266e+06  -4.8542404342969414e+06  5.4426744100562055e+06  -1.2265232995763547e+06  9.1353362436820660e+06  -1.2535435229450213e+06  1.2718133740243735e+07  -1.8274202273890690e+06  1.3900516812684869e+07  -1.6593244355410063e+06  1.5067729782581113e+07  -3.0345523941215863e+06  1.7319409562493771e+07  -4.2656245515562734e+06  1.8098586536625311e+07  -5.2945178834410822e+06  2.1906282668667976e+07  -1.1987115406590324e+07  3.5713662096388936e+07  -2.1478489144147087e+07  5.3544439481829435e+07  -3.7046574849436648e+07  6.1617215025452569e+07  -3.7621705760772079e+07  1.1442054943366750e+08  1.0136538928524729e+01  0.0000000000000000e+00  1.1508666560012581e+07  -4.1778951571327064e+05  -6.7096450282874294e+06  7.7001516269262217e+05  -4.2592518767130235e+06  1.8381354131177042e+06  -2.5234797232718919e+06  1.0100542583400859e+06  -5.2441509640131546e+06  8.0199221688889316e+05  -6.6622152319150977e+06  -1.2820660154026533e+06  -6.3563506008614348e+06  -2.3041617117365277e+06  -7.3822920325910999e+06  -1.9376667574892421e+06  -7.4649525261832746e+06  -3.4719683497459856e+06  -5.5086026392963659e+06  -3.4950065042597242e+06  -9.7260609010732025e+06  1.6759250882890390e+06  -2.3720037314122323e+07  5.4850527616804605e+06  -3.4990001208814524e+07  1.4458846727265438e+07  -3.7046585065959655e+07  3.6258772878446960e+05  -2.5598604805979338e+07  8.7162172977722019e+00  -1.9325344411488774e-08  1.6882305195097931e+07  -6.9125357934835954e+06  1.2321251631909534e+06  -4.2592518798332429e+06  2.8070449132468705e+06  -2.2572542567768604e+06  4.3959737867913777e+06  -4.4828931008112533e+06  7.3843346760692373e+06  -4.3726131962299412e+06  8.1504574502088483e+06  -3.5997855247262847e+06  1.0221109004639881e+07  -5.1173011427915758e+06  1.2942780608523268e+07  -6.0584070175152933e+06  1.3280341210956233e+07  -5.5888206004332975e+06  1.3954635665514791e+07  -9.3560644370077960e+06  2.3321202505710896e+07  -1.5838534354334582e+07  3.8430776795520931e+07  -2.2871857657864306e+07  4.5387425776418723e+07  -3.4990013577681899e+07  5.3544451121200278e+07  -4.1283412872335076e+07  6.6466841677504472e+07  7.4506590760614708e+00  0.0000000000000000e+00  7.6565888160766382e+06  -5.7152346775751133e+06  -4.8542404964202074e+06  1.8381354280319440e+06  -2.2572542632026253e+06  3.6148319038576465e+06  -4.7413693473373726e+06  4.4199556541764122e+06  -4.7617076066575265e+06  2.3195105176037434e+06  -4.9396782377668666e+06  2.2173928460379583e+06  -6.7470085578472167e+06  2.1785406117762900e+06  -6.8424128564917771e+06  4.7168812762358959e+05  -5.2494981794067733e+06  -9.5886447464247781e+05  -5.7467870421166718e+06  1.7177428915602372e+06  -1.3867878994995011e+07  3.4854398438624190e+06  -2.0842363536441479e+07  8.0831005718690949e+06  -2.2871887261242967e+07  5.4850756394704897e+06  -2.1478497846165620e+07  -2.9038416756308349e+06  -1.1280661488083407e+07  6.3281916559855889e+00  1.2476425418171884e-09  1.5630344993620599e+07  -1.0504840075836206e+07  5.4426744024559855e+06  -2.5234796968614836e+06  4.3959737911865637e+06  -4.7413693526242254e+06  5.0932015107254749e+06  -4.5327487113152165e+06  4.7831553266094178e+06  -4.7740061153219463e+06  7.5259738032927820e+06  -6.1318881645787721e+06  9.2328703510490265e+06  -5.9624861279940763e+06  9.9915510696183760e+06  -6.0572532204958880e+06  1.0746965076648500e+07  -7.1032670127710057e+06  1.4009408823094703e+07  -1.1216793600290455e+07  2.3651202753680836e+07  -1.4650494644786021e+07  2.9107458041173596e+07  -2.0842414981846709e+07  3.8430819191494517e+07  -2.3720045855541509e+07  3.5713654545318164e+07  -2.4438662693376884e+07  3.5743859751320370e+07  5.3375997094505401e+00  0.0000000000000000e+00  4.0830147127079251e+06  -7.9318886745046871e+06  -1.2265234031321525e+06  1.0100542965764196e+06  -4.4828931576059628e+06  4.4199556785648260e+06  -4.5327487220136849e+06  4.1191465970922373e+06  -4.9486403933942094e+06  5.4936905036259312e+06  -6.2197856875985702e+06  4.3167717710854327e+06  -5.9135761267909296e+06  3.5544001123521649e+06  -6.5408456002155431e+06  3.0600832605545116e+06  -5.6287129167104075e+06  1.9406650457511065e+06  -7.4179548071551491e+06  3.3872755033991043e+06  -1.3355684187974537e+07  4.7612465492305914e+06  -1.4650590509774797e+07  3.4855169283507830e+06  -1.5838551388003485e+07  1.6759069383441841e+06  -1.1987101564651949e+07  -8.5030941612147782e+06  -3.5861161754487017e+06  4.4681256768559523e+00  3.8927248293765209e-08  1.4369194816389792e+07  -1.0299071042340018e+07  9.1353362189251315e+06  -5.2441509265345829e+06  7.3843346992817810e+06  -4.7617076006984841e+06  4.7831553334537549e+06  -4.9486403979384750e+06  6.1818448589177150e+06  -6.1402263667056235e+06  5.9658921941198064e+06  -5.7210184701882880e+06  8.0366969145629518e+06  -7.2332553382781316e+06  9.5633977115573585e+06  -6.6241553854151228e+06  8.5114186027340833e+06  -6.6833548591730120e+06  1.3443287961693190e+07  -1.0406361964000029e+07  1.9215289418028750e+07  -1.3355848080010654e+07  2.3651337362573508e+07  -1.3867902637185998e+07  2.3321163113397565e+07  -9.7260260705768429e+06  2.1906276879362237e+07  -1.3120531698888415e+07  2.2871590209317412e+07  3.7094699291861599e+00  0.0000000000000000e+00  1.7328701086563522e+06  -8.1811560700320508e+06  -1.2535436918830303e+06  8.0199231300082221e+05  -4.3726133076694179e+06  2.3195105548797734e+06  -4.7740061657030303e+06  5.4936905323864995e+06  -6.1402263841575934e+06  5.2278097820699904e+06  -5.6032005308150379e+06  6.6463069266265966e+06  -7.6413834896231284e+06  5.7965395858108746e+06  -6.1080319931151383e+06  2.9416794813988572e+06  -4.2595126240672721e+06  3.5133059115918530e+06  -9.8367039102567602e+06  5.6209834535564668e+06  -1.0406634504182320e+07  3.3875010750524034e+06  -1.1216831165971082e+07  1.7176666897242304e+06  -9.3559997653336339e+06  -3.4950172779613668e+06  -5.2945355686592646e+06  -1.0382224493415900e+07  -2.7010315977147128e+06  3.0517899575547793e+00  -7.9196399083078995e-09  1.4031963062983209e+07  -1.0570633742222058e+07  1.2718133737590484e+07  -6.6622151832133429e+06  8.1504574596343338e+06  -4.9396782089037970e+06  7.5259738382775588e+06  -6.2197857029290320e+06  5.9658922124856086e+06  -5.6032005366116250e+06  7.4192868937776042e+06  -8.0544055513009299e+06  7.1247227101872778e+06  -5.7450033207593421e+06  6.7191897229213305e+06  -5.3649961884713946e+06  7.8005257173318882e+06  -8.4568157446910869e+06  1.4062643808944499e+07  -9.8371272635169234e+06  1.3443646203211270e+07  -7.4180065261966176e+06  1.4009270348828407e+07  -5.7466669742499711e+06  1.3954615750328232e+07  -5.5086348108082684e+06  1.8098611109875236e+07  -1.0615126441882072e+07  1.9110413618396793e+07  2.4857019941156011e+00  0.0000000000000000e+00  -6.2788980429058161e+05  -7.1395249478227319e+06  -1.8274204691648548e+06  -1.2820658920410746e+06  -3.5997856800108883e+06  2.2173929342033858e+06  -6.1318882953194203e+06  4.3167718298806660e+06  -5.7210185275423527e+06  6.6463069634632133e+06  -8.0544055822187681e+06  6.3669255930761397e+06  -5.0040127451614477e+06  5.6528020159191778e+06  -6.6829328222664874e+06  4.8677890018347781e+06  -6.2770165722149229e+06  5.8502875196551513e+06  -8.4574320374610629e+06  3.5138400507151270e+06  -6.6834247845101980e+06  1.9404310047254423e+06  -7.1030650383198075e+06  -9.5889609413720958e+05  -5.5888844547852259e+06  -3.4719196578964316e+06  -4.2656300486516366e+06  -8.9426271146987565e+06  -3.3360850365458140e+06  2.0022793911516898e+00  3.9374165920052336e-06  1.4925264070505744e+07  -1.0578999298972368e+07  1.3900516814447064e+07  -6.3563505166957555e+06  1.0221109028542010e+07  -6.7470085490025552e+06  9.2328704126217030e+06  -5.9135761277936893e+06  8.0366969707293669e+06  -7.6413835388484541e+06  7.1247227581691211e+06  -5.0040127552418364e+06  6.3919670419773618e+06  -8.4098016937470883e+06  7.2184025256208302e+06  -4.3865015574499900e+06  6.1597158154232986e+06  -6.2778418051264174e+06  7.8012648147109021e+06  -4.2595976696782447e+06  8.5110513202779572e+06  -5.6283921273108702e+06  1.0746919012723589e+07  -5.2496102194937710e+06  1.3280428611083791e+07  -7.4649586621076958e+06  1.7319382899339266e+07  -1.0030088500007540e+07  1.7114828470310897e+07  1.5930534315308287e+00  0.0000000000000000e+00  -2.4345410001005246e+06  -7.4535319556788085e+06  -1.6593247355500811e+06  -2.3041615449626492e+06  -5.1173014022391224e+06  2.1785407756230552e+06  -5.9624863275932670e+06  3.5544002245212574e+06  -7.2332555088432180e+06  5.7965396944637923e+06  -5.7450034036873775e+06  5.6528020589816039e+06  -8.4098017497204579e+06  7.2417878470223360e+06  -2.6461156840346418e+06  8.7462615540074871e+05  -4.3875116866666367e+06  4.8687290074952692e+06  -5.3650937216905784e+06  2.9411505815707999e+06  -6.6236876666228706e+06  3.0600238699606410e+06  -6.0574415734119192e+06  4.7183529965680244e+05  -6.0584175020994255e+06  -1.9377175612032346e+06  -3.0345238079274381e+06  -8.2959559129303768e+06  -3.1285117324245735e+06  1.2500131666144370e+00  7.4976577064942699e-09  1.5855823531668296e+07  -9.7670390823656823e+06  1.5067729801108869e+07  -7.3822919617297836e+06  1.2942780695649741e+07  -6.8424128585678898e+06  9.9915511615056898e+06  -6.5408456441805372e+06  9.5633978524975870e+06  -6.1080320634838892e+06  6.7191898272447502e+06  -6.6829329421936935e+06  7.2184026839760114e+06  -2.6461157499452517e+06  -2.8807770256040053e+05  -2.6472351117418348e+06  7.2194922668650355e+06  -6.6830365372828664e+06  6.7184970957842479e+06  -6.1074043938231068e+06  9.5633288958177101e+06  -6.5411338410185641e+06  9.9917786400421429e+06  -6.8424236041690810e+06  1.2942690385846859e+07  -7.3822374332959903e+06  1.5067735031377669e+07  -9.7670586999451742e+06  1.5855830107101131e+07  9.6560541625756646e-01  0.0000000000000000e+00  -3.1285031446906379e+06  -8.2959584387009051e+06  -3.0345528228465579e+06  -1.9376664819632224e+06  -6.0584074101202358e+06  4.7168836543989409e+05  -6.0572535473752376e+06  3.0600835077903070e+06  -6.6241557051824965e+06  2.9416796923490404e+06  -5.3649964618995106e+06  4.8677892481570970e+06  -4.3865017518835701e+06  8.7462615535592556e+05  -2.6472350458114981e+06  7.2429332359128417e+06  -8.4099079547152184e+06  5.6519845541639226e+06  -5.7442376455242941e+06  5.7964674937538384e+06  -7.2336590845849104e+06  3.5547227295128508e+06  -5.9624954151976807e+06  2.1783947715011602e+06  -5.1172125136577869e+06  -2.3041504649119447e+06  -1.6593652988444800e+06  -7.4535156494633313e+06  -2.4345387646589172e+06  7.3273476880890220e-01  0.0000000000000000e+00  1.7114828194164060e+07  -1.0030103515223578e+07  1.7319409665027458e+07  -7.4649524934719652e+06  1.3280341363531455e+07  -5.2494982148813736e+06  1.0746965286225675e+07  -5.6287130584623916e+06  8.5114188390795179e+06  -4.2595127547685681e+06  7.8005259368810430e+06  -6.2770166849440522e+06  6.1597158153252220e+06  -4.3875114921102319e+06  7.2194921085241176e+06  -8.4099078987418767e+06  6.3911025226190258e+06  -5.0031654730904745e+06  7.1246514338066960e+06  -7.6418911346921250e+06  8.0371123482121322e+06  -5.9135773944242075e+06  9.2326545462177210e+06  -6.7468742072603861e+06  1.0221129103351954e+07  -6.3564191081458591e+06  1.3900545734898349e+07  -1.0578989590609485e+07  1.4925253298474032e+07  5.4476358359700727e-01  0.0000000000000000e+00  -3.3360890007681870e+06  -8.9426153735890593e+06  -4.2656251917296005e+06  -3.4719679542057263e+06  -5.5888211482459307e+06  -9.5886411089226301e+05  -7.1032675217683623e+06  1.9406653791528989e+06  -6.6833552257751590e+06  3.5133060960515877e+06  -8.4568159644317143e+06  5.8502875195945278e+06  -6.2778416922110431e+06  4.8687287610192057e+06  -6.6830364174257955e+06  5.6519845110763349e+06  -5.0031654630154669e+06  6.3668552825750103e+06  -8.0549763908568490e+06  6.6467912344644750e+06  -5.7210100010339543e+06  4.3164840687520131e+06  -6.1317063879485913e+06  2.2174267971417084e+06  -3.5998933873171778e+06  -1.2820195120363529e+06  -1.8274021521251576e+06  -7.1395505867376402e+06  -6.2788464351865056e+05  3.9551197849909930e-01  -8.2298557378547960e-09  1.9110418029269852e+07  -1.0615124895951914e+07  1.8098586711505797e+07  -5.5086025845526261e+06  1.3954635869335959e+07  -5.7467870838167267e+06  1.4009409050483758e+07  -7.4179548240716364e+06  1.3443288055065477e+07  -9.8367038355716802e+06  1.4062643808792148e+07  -8.4574318176595252e+06  7.8012645950767007e+06  -5.3650934480579738e+06  6.7184969916199688e+06  -5.7442375625181049e+06  7.1246513858636273e+06  -8.0549763599327849e+06  7.4197966813907465e+06  -5.6031843554127552e+06  5.9655489211943364e+06  -6.2195620965273939e+06  7.5260237697000355e+06  -4.9398286708009737e+06  8.1505232089513429e+06  -6.6621825431562243e+06  1.2718087413772017e+07  -1.0570621351266749e+07  1.4031970090768874e+07  2.7925785480349702e-01  0.0000000000000000e+00  -2.7010287619782155e+06  -1.0382236101253105e+07  -5.2945187153786495e+06  -3.4950060647388869e+06  -9.3560650829639304e+06  1.7177432301188062e+06  -1.1216794045085894e+07  3.3872756264949967e+06  -1.0406362169463104e+07  5.6209834529705755e+06  -9.8371273375313208e+06  3.5138398662321530e+06  -4.2595975390762361e+06  2.9411503703146242e+06  -6.1074043237402570e+06  5.7964673849226395e+06  -7.6418910855628476e+06  6.6467911975833522e+06  -5.6031843496201420e+06  5.2274454847854236e+06  -6.1399789328807900e+06  5.4937542403315576e+06  -4.7741960703047514e+06  2.3195949969106307e+06  -4.3725652875245837e+06  8.0192234824639803e+05  -1.2535260059860442e+06  -8.1811381259270413e+06  1.7328569063620972e+06  1.9073687234717371e-01  0.0000000000000000e+00  2.2871586842981856e+07  -1.3120525752811031e+07  2.1906282807932790e+07  -9.7260607156150229e+06  2.3321202690748658e+07  -1.3867878890270960e+07  2.3651202850821614e+07  -1.3355683996137841e+07  1.9215289417732097e+07  -1.0406634297643911e+07  1.3443646108870145e+07  -6.6834244178425884e+06  8.5110510843003597e+06  -6.6236873463145681e+06  9.5633287553639840e+06  -7.2336589136551935e+06  8.0371122922587749e+06  -5.7210099435641980e+06  5.9655489028745536e+06  -6.1399789154243581e+06  6.1819140265477803e+06  -4.9488535864042640e+06  4.7832530358486846e+06  -4.7616439513987806e+06  7.3842406384361126e+06  -5.2441265304553686e+06  9.1353665447147805e+06  -1.0299097135337546e+07  1.4369197891721455e+07  1.2514265064501323e-01  0.0000000000000000e+00  -3.5861117495785858e+06  -8.5030919972760752e+06  -1.1987116438700195e+07  1.6759255152468544e+06  -1.5838535052085258e+07  3.4854400514700753e+06  -1.4650495021235745e+07  4.7612465481398040e+06  -1.3355848271408334e+07  3.3875009515103153e+06  -7.4180065081942370e+06  1.9404306710324306e+06  -5.6283919863412231e+06  3.0600236217598901e+06  -6.5411337979185339e+06  3.5547226166674420e+06  -5.9135773938771086e+06  4.3164840096975761e+06  -6.2195620813319404e+06  5.4937542115241168e+06  -4.9488535818643086e+06  4.1192491319424990e+06  -4.5326758038492166e+06  4.4198436482255785e+06  -4.4828646859691376e+06  1.0100981042441517e+06  -1.2265647096649932e+06  -7.9318837102188682e+06  4.0830239381558462e+06  7.8125822913402365e-02  0.0000000000000000e+00  3.5743861298802771e+07  -2.4438670175555930e+07  3.5713662282861888e+07  -2.3720037035082746e+07  3.8430777003298908e+07  -2.0842363239434704e+07  2.9107458038767856e+07  -1.4650590128757188e+07  2.3651337264271818e+07  -1.1216830721645188e+07  1.4009270120491365e+07  -7.1030645285119191e+06  1.0746918804665567e+07  -6.0574412448002463e+06  9.9917785497258864e+06  -5.9624952143385196e+06  9.2326544855478480e+06  -6.1317062566344421e+06  7.5260237350336453e+06  -4.7741960197690893e+06  4.7832530290537197e+06  -4.5326757931461558e+06  5.0930827261164393e+06  -4.7413382397390958e+06  4.3960277156091044e+06  -2.5235324927364197e+06  5.4426790976417372e+06  -1.0504818807852058e+07  1.5630333764236100e+07  4.5795923050556346e-02  0.0000000000000000e+00  -1.1280660491883008e+07  -2.9038397907016645e+06  -2.1478490530497730e+07  5.4850531275202874e+06  -2.2871858399829332e+07  8.0831005731674554e+06  -2.0842415279574979e+07  3.4855167152843936e+06  -1.3867902738851430e+07  1.7176663526932437e+06  -5.7466669321179343e+06  -9.5889645981487597e+05  -5.2496101869752863e+06  4.7183505862806243e+05  -6.8424236050179191e+06  2.1783946052621487e+06  -6.7468742178823678e+06  2.2174267077676700e+06  -4.9398287004000703e+06  2.3195949592402889e+06  -4.7616439575382015e+06  4.4198436237834524e+06  -4.7413382344572321e+06  3.6148897129551014e+06  -2.2573143248395813e+06  1.8381399867622422e+06  -4.8542105900258059e+06  -5.7152541702043023e+06  7.6565876383798579e+06  2.4719498656193679e-02  0.0000000000000000e+00  6.6466842330428421e+07  -4.1283410536771081e+07  5.3544439817666210e+07  -3.4990000598311529e+07  4.5387425762912586e+07  -2.2871886499013361e+07  3.8430818990844347e+07  -1.5838550689056640e+07  2.3321162921335507e+07  -9.3559991220298782e+06  1.3954615547569938e+07  -5.5888839024002096e+06  1.3280428464605547e+07  -6.0584171031591678e+06  1.2942690304451829e+07  -5.1172122494880408e+06  1.0221129083044238e+07  -3.5998932294987421e+06  8.1505232011721786e+06  -4.3725651751201758e+06  7.3842406157215768e+06  -4.4828646289595533e+06  4.3960277112742476e+06  -2.2573143184077530e+06  2.8070492827371610e+06  -4.2592161157333422e+06  1.2320993369024780e+06  -6.9125374098022031e+06  1.6882314644681603e+07  1.1921054521698341e-02  0.0000000000000000e+00  -2.5598599711127874e+07  3.6258204413803085e+05  -3.7046576344307482e+07  1.4458846708490122e+07  -3.4990014257363863e+07  5.4850752329663765e