<?xml version="1.0"?>
<VTKFile type="UnstructuredGrid"  version="0.1"  >
<UnstructuredGrid>
<Piece  NumberOfPoints="961" NumberOfCells="1800">
<Points>
<DataArray  type="Float64"  NumberOfComponents="3"  format="ascii">-1 -1 0  -0.9333333333333333 -1 0  -0.8666666666666667 -1 0  -0.8 -1 0  -0.7333333333333334 -1 0  -0.6666666666666667 -1 0  -0.6 -1 0  -0.5333333333333333 -1 0  -0.4666666666666667 -1 0  -0.4 -1 0  -0.3333333333333334 -1 0  -0.2666666666666667 -1 0  -0.2 -1 0  -0.1333333333333333 -1 0  -0.06666666666666665 -1 0  0 -1 0  0.06666666666666665 -1 0  0.1333333333333333 -1 0  0.2 -1 0  0.2666666666666666 -1 0  0.3333333333333333 -1 0  0.3999999999999999 -1 0  0.4666666666666666 -1 0  0.5333333333333334 -1 0  0.6000000000000001 -1 0  0.6666666666666667 -1 0  0.7333333333333334 -1 0  0.8 -1 0  0.8666666666666667 -1 0  0.9333333333333333 -1 0  1 -1 0  -1 -0.9333333333333333 0  -0.9333333333333333 -0.9333333333333333 0  -0.8666666666666667 -0.9333333333333333 0  -0.8 -0.9333333333333333 0  -0.7333333333333334 -0.9333333333333333 0  -0.6666666666666667 -0.9333333333333333 0  -0.6 -0.9333333333333333 0  -0.5333333333333333 -0.9333333333333333 0  -0.4666666666666667 -0.9333333333333333 0  -0.4 -0.9333333333333333 0  -0.3333333333333334 -0.9333333333333333 0  -0.2666666666666667 -0.9333333333333333 0  -0.2 -0.9333333333333333 0  -0.1333333333333333 -0.9333333333333333 0  -0.06666666666666665 -0.9333333333333333 0  0 -0.9333333333333333 0  0.06666666666666665 -0.9333333333333333 0  0.1333333333333333 -0.9333333333333333 0  0.2 -0.9333333333333333 0  0.2666666666666666 -0.9333333333333333 0  0.3333333333333333 -0.9333333333333333 0  0.3999999999999999 -0.9333333333333333 0  0.4666666666666666 -0.9333333333333333 0  0.5333333333333334 -0.9333333333333333 0  0.6000000000000001 -0.9333333333333333 0  0.6666666666666667 -0.9333333333333333 0  0.7333333333333334 -0.9333333333333333 0  0.8 -0.9333333333333333 0  0.8666666666666667 -0.9333333333333333 0  0.9333333333333333 -0.9333333333333333 0  1 -0.9333333333333333 0  -1 -0.8666666666666667 0  -0.9333333333333333 -0.8666666666666667 0  -0.8666666666666667 -0.8666666666666667 0  -0.8 -0.8666666666666667 0  -0.7333333333333334 -0.8666666666666667 0  -0.6666666666666667 -0.8666666666666667 0  -0.6 -0.8666666666666667 0  -0.5333333333333333 -0.8666666666666667 0  -0.4666666666666667 -0.8666666666666667 0  -0.4 -0.8666666666666667 0  -0.3333333333333334 -0.8666666666666667 0  -0.2666666666666667 -0.8666666666666667 0  -0.2 -0.8666666666666667 0  -0.1333333333333333 -0.8666666666666667 0  -0.06666666666666665 -0.8666666666666667 0  0 -0.8666666666666667 0  0.06666666666666665 -0.8666666666666667 0  0.1333333333333333 -0.8666666666666667 0  0.2 -0.8666666666666667 0  0.2666666666666666 -0.8666666666666667 0  0.3333333333333333 -0.8666666666666667 0  0.3999999999999999 -0.8666666666666667 0  0.4666666666666666 -0.8666666666666667 0  0.5333333333333334 -0.8666666666666667 0  0.6000000000000001 -0.8666666666666667 0  0.6666666666666667 -0.8666666666666667 0  0.7333333333333334 -0.8666666666666667 0  0.8 -0.8666666666666667 0  0.8666666666666667 -0.8666666666666667 0  0.9333333333333333 -0.8666666666666667 0  1 -0.8666666666666667 0  -1 -0.8 0  -0.9333333333333333 -0.8 0  -0.8666666666666667 -0.8 0  -0.8 -0.8 0  -0.7333333333333334 -0.8 0  -0.6666666666666667 -0.8 0  -0.6 -0.8 0  -0.5333333333333333 -0.8 0  -0.4666666666666667 -0.8 0  -0.4 -0.8 0  -0.3333333333333334 -0.8 0  -0.2666666666666667 -0.8 0  -0.2 -0.8 0  -0.1333333333333333 -0.8 0  -0.06666666666666665 -0.8 0  0 -0.8 0  0.06666666666666665 -0.8 0  0.1333333333333333 -0.8 0  0.2 -0.8 0  0.2666666666666666 -0.8 0  0.3333333333333333 -0.8 0  0.3999999999999999 -0.8 0  0.4666666666666666 -0.8 0  0.5333333333333334 -0.8 0  0.6000000000000001 -0.8 0  0.6666666666666667 -0.8 0  0.7333333333333334 -0.8 0  0.8 -0.8 0  0.8666666666666667 -0.8 0  0.9333333333333333 -0.8 0  1 -0.8 0  -1 -0.7333333333333334 0  -0.9333333333333333 -0.7333333333333334 0  -0.8666666666666667 -0.7333333333333334 0  -0.8 -0.7333333333333334 0  -0.7333333333333334 -0.7333333333333334 0  -0.6666666666666667 -0.7333333333333334 0  -0.6 -0.7333333333333334 0  -0.5333333333333333 -0.7333333333333334 0  -0.4666666666666667 -0.7333333333333334 0  -0.4 -0.7333333333333334 0  -0.3333333333333334 -0.7333333333333334 0  -0.2666666666666667 -0.7333333333333334 0  -0.2 -0.7333333333333334 0  -0.1333333333333333 -0.7333333333333334 0  -0.06666666666666665 -0.7333333333333334 0  0 -0.7333333333333334 0  0.06666666666666665 -0.7333333333333334 0  0.1333333333333333 -0.7333333333333334 0  0.2 -0.7333333333333334 0  0.2666666666666666 -0.7333333333333334 0  0.3333333333333333 -0.7333333333333334 0  0.3999999999999999 -0.7333333333333334 0  0.4666666666666666 -0.7333333333333334 0  0.5333333333333334 -0.7333333333333334 0  0.6000000000000001 -0.7333333333333334 0  0.6666666666666667 -0.7333333333333334 0  0.7333333333333334 -0.7333333333333334 0  0.8 -0.7333333333333334 0  0.8666666666666667 -0.7333333333333334 0  0.9333333333333333 -0.7333333333333334 0  1 -0.7333333333333334 0  -1 -0.6666666666666667 0  -0.9333333333333333 -0.6666666666666667 0  -0.8666666666666667 -0.6666666666666667 0  -0.8 -0.6666666666666667 0  -0.7333333333333334 -0.6666666666666667 0  -0.6666666666666667 -0.6666666666666667 0  -0.6 -0.6666666666666667 0  -0.5333333333333333 -0.6666666666666667 0  -0.4666666666666667 -0.6666666666666667 0  -0.4 -0.6666666666666667 0  -0.3333333333333334 -0.6666666666666667 0  -0.2666666666666667 -0.6666666666666667 0  -0.2 -0.6666666666666667 0  -0.1333333333333333 -0.6666666666666667 0  -0.06666666666666665 -0.6666666666666667 0  0 -0.6666666666666667 0  0.06666666666666665 -0.6666666666666667 0  0.1333333333333333 -0.6666666666666667 0  0.2 -0.6666666666666667 0  0.2666666666666666 -0.6666666666666667 0  0.3333333333333333 -0.6666666666666667 0  0.3999999999999999 -0.6666666666666667 0  0.4666666666666666 -0.6666666666666667 0  0.5333333333333334 -0.6666666666666667 0  0.6000000000000001 -0.6666666666666667 0  0.6666666666666667 -0.6666666666666667 0  0.7333333333333334 -0.6666666666666667 0  0.8 -0.6666666666666667 0  0.8666666666666667 -0.6666666666666667 0  0.9333333333333333 -0.6666666666666667 0  1 -0.6666666666666667 0  -1 -0.6 0  -0.9333333333333333 -0.6 0  -0.8666666666666667 -0.6 0  -0.8 -0.6 0  -0.7333333333333334 -0.6 0  -0.6666666666666667 -0.6 0  -0.6 -0.6 0  -0.5333333333333333 -0.6 0  -0.4666666666666667 -0.6 0  -0.4 -0.6 0  -0.3333333333333334 -0.6 0  -0.2666666666666667 -0.6 0  -0.2 -0.6 0  -0.1333333333333333 -0.6 0  -0.06666666666666665 -0.6 0  0 -0.6 0  0.06666666666666665 -0.6 0  0.1333333333333333 -0.6 0  0.2 -0.6 0  0.2666666666666666 -0.6 0  0.3333333333333333 -0.6 0  0.3999999999999999 -0.6 0  0.4666666666666666 -0.6 0  0.5333333333333334 -0.6 0  0.6000000000000001 -0.6 0  0.6666666666666667 -0.6 0  0.7333333333333334 -0.6 0  0.8 -0.6 0  0.8666666666666667 -0.6 0  0.9333333333333333 -0.6 0  1 -0.6 0  -1 -0.5333333333333333 0  -0.9333333333333333 -0.5333333333333333 0  -0.8666666666666667 -0.5333333333333333 0  -0.8 -0.5333333333333333 0  -0.7333333333333334 -0.5333333333333333 0  -0.6666666666666667 -0.5333333333333333 0  -0.6 -0.5333333333333333 0  -0.5333333333333333 -0.5333333333333333 0  -0.4666666666666667 -0.5333333333333333 0  -0.4 -0.5333333333333333 0  -0.3333333333333334 -0.5333333333333333 0  -0.2666666666666667 -0.5333333333333333 0  -0.2 -0.5333333333333333 0  -0.1333333333333333 -0.5333333333333333 0  -0.06666666666666665 -0.5333333333333333 0  0 -0.5333333333333333 0  0.06666666666666665 -0.5333333333333333 0  0.1333333333333333 -0.5333333333333333 0  0.2 -0.5333333333333333 0  0.2666666666666666 -0.5333333333333333 0  0.3333333333333333 -0.5333333333333333 0  0.3999999999999999 -0.5333333333333333 0  0.4666666666666666 -0.5333333333333333 0  0.5333333333333334 -0.5333333333333333 0  0.6000000000000001 -0.5333333333333333 0  0.6666666666666667 -0.5333333333333333 0  0.7333333333333334 -0.5333333333333333 0  0.8 -0.5333333333333333 0  0.8666666666666667 -0.5333333333333333 0  0.9333333333333333 -0.5333333333333333 0  1 -0.5333333333333333 0  -1 -0.4666666666666667 0  -0.9333333333333333 -0.4666666666666667 0  -0.8666666666666667 -0.4666666666666667 0  -0.8 -0.4666666666666667 0  -0.7333333333333334 -0.4666666666666667 0  -0.6666666666666667 -0.4666666666666667 0  -0.6 -0.4666666666666667 0  -0.5333333333333333 -0.4666666666666667 0  -0.4666666666666667 -0.4666666666666667 0  -0.4 -0.4666666666666667 0  -0.3333333333333334 -0.4666666666666667 0  -0.2666666666666667 -0.4666666666666667 0  -0.2 -0.4666666666666667 0  -0.1333333333333333 -0.4666666666666667 0  -0.06666666666666665 -0.4666666666666667 0  0 -0.4666666666666667 0  0.06666666666666665 -0.4666666666666667 0  0.1333333333333333 -0.4666666666666667 0  0.2 -0.4666666666666667 0  0.2666666666666666 -0.4666666666666667 0  0.3333333333333333 -0.4666666666666667 0  0.3999999999999999 -0.4666666666666667 0  0.4666666666666666 -0.4666666666666667 0  0.5333333333333334 -0.4666666666666667 0  0.6000000000000001 -0.4666666666666667 0  0.6666666666666667 -0.4666666666666667 0  0.7333333333333334 -0.4666666666666667 0  0.8 -0.4666666666666667 0  0.8666666666666667 -0.4666666666666667 0  0.9333333333333333 -0.4666666666666667 0  1 -0.4666666666666667 0  -1 -0.4 0  -0.9333333333333333 -0.4 0  -0.8666666666666667 -0.4 0  -0.8 -0.4 0  -0.7333333333333334 -0.4 0  -0.6666666666666667 -0.4 0  -0.6 -0.4 0  -0.5333333333333333 -0.4 0  -0.4666666666666667 -0.4 0  -0.4 -0.4 0  -0.3333333333333334 -0.4 0  -0.2666666666666667 -0.4 0  -0.2 -0.4 0  -0.1333333333333333 -0.4 0  -0.06666666666666665 -0.4 0  0 -0.4 0  0.06666666666666665 -0.4 0  0.1333333333333333 -0.4 0  0.2 -0.4 0  0.2666666666666666 -0.4 0  0.3333333333333333 -0.4 0  0.3999999999999999 -0.4 0  0.4666666666666666 -0.4 0  0.5333333333333334 -0.4 0  0.6000000000000001 -0.4 0  0.6666666666666667 -0.4 0  0.7333333333333334 -0.4 0 
[...]
<PointData  Scalars="f_24"> 
<DataArray  type="Float64"  Name="f_24"  format="ascii">0.0000000000000000e+00  0.0000000000000000e+00  0.0000000000000000e+00  0.0000000000000000e+00  0.0000000000000000e+00  0.0000000000000000e+00  0.0000000000000000e+00  0.0000000000000000e+00  0.0000000000000000e+00  0.0000000000000000e+00  0.0000000000000000e+00  0.0000000000000000e+00  0.0000000000000000e+00  0.0000000000000000e+00  0.0000000000000000e+00  0.0000000000000000e+00  0.0000000000000000e+00  0.0000000000000000e+00  0.0000000000000000e+00  0.0000000000000000e+00  0.0000000000000000e+00  0.0000000000000000e+00  0.0000000000000000e+00  0.0000000000000000e+00  0.0000000000000000e+00  -1.4780623618949190e-08  0.0000000000000000e+00  1.4684977364316900e-07  0.0000000000000000e+00  0.0000000000000000e+00  1.2840300767399656e+01  0.0000000000000000e+00  1.1707596540066728e+07  1.2779328251016218e+07  1.8597497586296462e+07  1.3378117187993493e+07  1.8333381413999181e+07  1.0432823333068380e+07  1.7419523476319533e+07  7.3734427639075378e+06  1.6278098864438843e+07  5.2454414695917983e+06  1.5869249784051089e+07  3.1222811384404167e+06  1.6532395211669918e+07  1.5364203190807838e+06  1.7287482717708901e+07  9.8362575636964000e+05  1.8384109872375783e+07  9.3157259839906159e+05  2.0159541327256877e+07  1.6314457699093998e+06  2.3463636636434406e+07  9.7862175367664511e+05  3.4416083803375795e+07  -5.6212618453321932e+06  6.0145265686887115e+07  -1.8202821266263083e+07  9.9747513469783187e+07  -1.1182998709982909e+07  2.1703997032867014e+08  1.1211976255638513e+01  0.0000000000000000e+00  1.2779328230720511e+07  1.4029785087009946e+07  5.5999073827440422e+06  2.4473092418540353e+06  -3.8836763310754849e+06  -3.5752853540168372e+06  -8.3988992166621219e+06  -6.7552344522699025e+06  -9.2899333977927323e+06  -7.8342872468256196e+06  -1.0172778985228030e+07  -7.4583726157871410e+06  -1.0522922945768237e+07  -7.9706955219503613e+06  -9.9474863469993845e+06  -8.7278549563216995e+06  -1.0075991859933730e+07  -9.1032323597907778e+06  -1.0247084582914237e+07  -9.8318308609854076e+06  -1.1726339186241863e+07  -7.3100749520899765e+06  -2.0196815039429795e+07  -1.2242136969684460e+06  -3.2863062336308289e+07  3.0035570002118191e+06  -2.8409288269236974e+07  -1.7520263728683293e+07  -1.1183006792635182e+07  9.7436640847056069e+00  6.8012720542071347e-09  1.8597497577540290e+07  5.5999073862799425e+06  1.9688764586991409e+06  -4.5813444092100309e+06  1.3015706663154268e+06  -4.6876996905248575e+06  3.8492876000990523e+06  -2.1569161263137474e+06  6.8226887288767947e+06  -2.1511670995843154e+06  1.0026117239554493e+07  -2.4539314128326145e+06  1.1216867038362587e+07  -2.1633463299850654e+06  1.2295140382970279e+07  -3.2786217257781117e+06  1.4156622652070416e+07  -4.3926817392050168e+06  1.4663167606447918e+07  -5.4439470051428219e+06  1.7721958316548966e+07  -1.1195781619092030e+07  2.9535421566105895e+07  -1.8642310329580441e+07  4.5643630884267010e+07  -3.0071138276511788e+07  5.4615225112685159e+07  -2.8409287713334773e+07  9.9747515039890870e+07  8.4245213753989479e+00  0.0000000000000000e+00  1.3378117125011820e+07  2.4473092614306239e+06  -4.5813444151083892e+06  5.2487330983083101e+05  -4.5909784898915412e+06  4.3869121001213440e+05  -3.3534466915623965e+06  -1.3011070622726735e+05  -5.3809076289606849e+06  -5.0110441951721928e+04  -6.3556423543578368e+06  -1.6937302115034934e+06  -5.9937298412581505e+06  -2.5485983263888597e+06  -6.8350683542878823e+06  -2.2971860689813751e+06  -6.9249382030402161e+06  -3.6889130737219374e+06  -5.3570937392500686e+06  -3.8216584276144742e+06  -9.1162449487945158e+06  3.3227427992759028e+05  -2.1260705154735547e+07  3.3022931796042491e+06  -3.0568184451111399e+07  1.1935615293552296e+07  -3.0071146780015599e+07  3.0035627393595707e+06  -1.8202828033111673e+07  7.2440855351644764e+00  -1.4474452636798520e-10  1.8333381396104462e+07  -3.8836762938353657e+06  1.3015706727945372e+06  -4.5909784935951410e+06  1.3150167420470566e+06  -2.9604664559590248e+06  3.1079056198217254e+06  -4.3561310075942921e+06  6.0689949974743575e+06  -3.9731233492318136e+06  6.9275597317980584e+06  -3.1862816993435486e+06  8.7875637944779973e+06  -4.4044594907844085e+06  1.1130332095761321e+07  -5.1701250674980441e+06  1.1403114659356657e+07  -4.8187799056949830e+06  1.1895705748798171e+07  -8.1909893548108507e+06  1.9635329336453088e+07  -1.3936697324277958e+07  3.2122066557906002e+07  -2.0258423860835385e+07  3.7489766944740579e+07  -3.0568194723343257e+07  4.5643640560127631e+07  -3.2863063383493155e+07  6.0145265150424987e+07  6.1922746756364093e+00  0.0000000000000000e+00  1.0432823241481170e+07  -3.5752852982615046e+06  -4.6876997428115318e+06  4.3869122162917093e+05  -2.9604664607440508e+06  2.4717558652203195e+06  -4.5021608350167898e+06  3.5517323546948433e+06  -4.2812852104430348e+06  1.8649900694853584e+06  -4.3682455154730240e+06  1.7810562717879415e+06  -5.8787219669692041e+06  1.6997550221557254e+06  -5.9359516047219206e+06  1.9592473851668127e+05  -4.5804949642581902e+06  -1.0424918145931225e+06  -4.9974823602814674e+06  1.2229315634428931e+06  -1.1941173996851735e+07  2.5005663569595255e+06  -1.8139825876994569e+07  5.9859647420545062e+06  -2.0258448472178005e+07  3.3023121968131470e+06  -1.8642317572485007e+07  -1.2242145179812482e+06  -5.6212641483265664e+06  5.2593871943268997e+00  -1.2476425418171884e-09  1.7419523466715232e+07  -8.3988991616051160e+06  3.8492875948771108e+06  -3.3534466706164852e+06  3.1079056243889146e+06  -4.5021608401443195e+06  4.1973415672069341e+06  -4.0163787013369328e+06  4.0994657884000530e+06  -4.1242415494659985e+06  6.5086948225155855e+06  -5.2280122502588956e+06  7.9836045870171469e+06  -5.0374037773317005e+06  8.6432386794987917e+06  -5.1046195236214781e+06  9.3069953156909067e+06  -6.0255363741015792e+06  1.2046502723356066e+07  -9.6004585007696487e+06  2.0216336722525578e+07  -1.2518080938942883e+07  2.4709573888989326e+07  -1.8139868628953803e+07  3.2122101794313174e+07  -2.1260712248892590e+07  2.9535415292938262e+07  -2.0196808249007527e+07  3.4416082709108755e+07  4.4361019840122049e+00  0.0000000000000000e+00  7.3734426428362755e+06  -6.7552343734952370e+06  -2.1569162123336778e+06  -1.3011067517240574e+05  -4.3561310546174096e+06  3.5517323747353628e+06  -4.0163787097784523e+06  3.5059187765209307e+06  -4.2900617175002145e+06  4.7014557872449951e+06  -5.3599325742944600e+06  3.6496608720920235e+06  -5.0829986370361904e+06  2.9463516504384251e+06  -5.6168371031251028e+06  2.4948890381411407e+06  -4.8344241703317715e+06  1.5400352975556520e+06  -6.2977100029526092e+06  2.7635779041955359e+06  -1.1398176306189645e+07  3.7941094289515293e+06  -1.2518160617347050e+07  2.5006304238976883e+06  -1.3936711488708427e+07  3.3225919879017718e+05  -1.1195770124140056e+07  -7.3100762440442443e+06  9.7861708070750907e+05  3.7134783908246605e+00  9.7318120734413022e-09  1.6278098865051340e+07  -9.2899333173820358e+06  6.8226887107725637e+06  -5.3809075990741085e+06  6.0689950184149994e+06  -4.2812852063648049e+06  4.0994657948056078e+06  -4.2900617219836172e+06  5.3272260158729414e+06  -5.2684971108472459e+06  5.1367315742004523e+06  -4.8694408623722596e+06  6.9063927237403393e+06  -6.1380922086460600e+06  8.2331003982079327e+06  -5.6109510397379026e+06  7.3488820687257601e+06  -5.6912235246650977e+06  1.1523357165641975e+07  -8.8603572172948867e+06  1.6513355890838489e+07  -1.1398312514809532e+07  2.0216448597327322e+07  -1.1941193643689785e+07  1.9635296599385064e+07  -9.1162159990431350e+06  1.7721953507599324e+07  -1.1726343831050642e+07  2.3463639699089374e+07  3.0829561336480933e+00  0.0000000000000000e+00  5.2454413244298780e+06  -7.8342871522445688e+06  -2.1511672397318990e+06  -5.0110362651950760e+04  -3.9731234420551020e+06  1.8649901000875118e+06  -4.1242415913129253e+06  4.7014558110934747e+06  -5.2684971249767989e+06  4.4718413887941744e+06  -4.7925973100232622e+06  5.6484371975991996e+06  -6.5359880734000923e+06  4.8966145487406319e+06  -5.2338802216550009e+06  2.4301949682980813e+06  -3.6428291517200959e+06  2.9341209997558878e+06  -8.3602799028600967e+06  4.6696173952033389e+06  -8.8605837290846612e+06  2.7637653788129683e+06  -9.6004897266934924e+06  1.2228682344742799e+06  -8.1909356125964858e+06  -3.8216673786097118e+06  -5.4439617117396463e+06  -9.8318207833463419e+06  1.6314426959105183e+06  2.5363557071406739e+00  0.0000000000000000e+00  1.5869249798844118e+07  -1.0172778898545222e+07  1.0026117240784742e+07  -6.3556423154130252e+06  6.9275597416218137e+06  -4.3682454924764559e+06  6.5086948530562976e+06  -5.3599325879985448e+06  5.1367315901382389e+06  -4.7925973155423226e+06  6.3447463782067075e+06  -6.8695696685395632e+06  6.1015123328814553e+06  -4.8799264418739667e+06  5.7706806606903477e+06  -4.5403483653203798e+06  6.6968556582686994e+06  -7.2255150164621715e+06  1.2051142508160165e+07  -8.3606317526571974e+06  1.1523654902761735e+07  -6.2977529867618391e+06  1.2046387639711158e+07  -4.9973825718963621e+06  1.1895689200612208e+07  -5.3571204770104336e+06  1.4663188032008559e+07  -1.0247085726794671e+07  2.0159537873866957e+07  2.0658775756892473e+00  0.0000000000000000e+00  3.1222809501883178e+06  -7.4583724835315766e+06  -2.4539316142776539e+06  -1.6937301095484609e+06  -3.1862818290260220e+06  1.7810563449872443e+06  -5.2280123595697843e+06  3.6496609208986522e+06  -4.8694409100674633e+06  5.6484372282676063e+06  -6.8695696939236987e+06  5.4179388533516005e+06  -4.2659633473053295e+06  4.7901022993566170e+06  -5.7109708104309682e+06  4.0967663156178002e+06  -5.3504652294179834e+06  4.9634998204777902e+06  -7.2260272221267587e+06  2.9345649266753257e+06  -5.6912816433905140e+06  1.5398407876061555e+06  -6.0253685170069179e+06  -1.0425180913152237e+06  -4.8188329802948032e+06  -3.6888726035194010e+06  -4.3926863142759986e+06  -9.1032418038372081e+06  9.3157541142089351e+05  1.6641029794549953e+00  -2.5492975821436384e-06  1.6532395258769969e+07  -1.0522922855855752e+07  1.1216867043198017e+07  -5.9937297725736927e+06  8.7875638167791292e+06  -5.8787219608944189e+06  7.9836046401142441e+06  -5.0829986388131091e+06  6.9063927717899680e+06  -6.5359881154646734e+06  6.1015123735628380e+06  -4.2659633564694133e+06  5.4606013298590714e+06  -7.1677618252624162e+06  6.1822884600444725e+06  -3.7122529456032431e+06  5.2643130845624069e+06  -5.3511510853176294e+06  6.6974699277241891e+06  -3.6428998352379948e+06  7.3485768218409177e+06  -4.8341575629371125e+06  9.3069570351576824e+06  -4.5805880823984137e+06  1.1403187301174665e+07  -6.9249433031038698e+06  1.4156600494694373e+07  -1.0075979252401423e+07  1.8384110226707045e+07  1.3239935313506008e+00  0.0000000000000000e+00  1.5364200674762619e+06  -7.9706953613637304e+06  -2.1633465811857921e+06  -2.5485981879049838e+06  -4.4044597080745697e+06  1.6997551586962717e+06  -5.0374039444232099e+06  2.9463517438927214e+06  -6.1380923514102260e+06  4.8966146394868214e+06  -4.8799265110350121e+06  4.7901023353912747e+06  -7.1677618716412839e+06  6.1570576119221225e+06  -2.2513966980190449e+06  6.9272309236485523e+05  -3.7130924693437391e+06  4.0975475601535300e+06  -4.5404294276391370e+06  2.4297553987719305e+06  -5.6105623191364482e+06  2.4948396798068248e+06  -5.1047760670507178e+06  1.9604705473150191e+05  -5.1701337842946760e+06  -2.2972282912589442e+06  -3.2785979715870111e+06  -8.7278526537118908e+06  9.8361828638080321e+05  1.0388912976448195e+00  -3.7488288532471349e-09  1.7287482797051501e+07  -9.9474862289214805e+06  1.2295140401157958e+07  -6.8350682962886710e+06  1.1130332171044240e+07  -5.9359516075752173e+06  8.6432387581355292e+06  -5.6168371410089191e+06  8.2331005176901156e+06  -5.2338802816396244e+06  5.7706807491664747e+06  -5.7109709120486891e+06  6.1822885933740018e+06  -2.2513967542380020e+06  -2.3023728081336123e+05  -2.2523270606254940e+06  6.1831941503779544e+06  -5.7110570103716059e+06  5.7701050170802185e+06  -5.2333586226948546e+06  8.2330432074970137e+06  -5.6170766626403173e+06  8.6434278165306058e+06  -5.9359605382873006e+06  1.1130257114177937e+07  -6.8350229774752641e+06  1.2295144748057704e+07  -9.9475025331747029e+06  1.7287488261924326e+07  8.0251879796247849e-01  0.0000000000000000e+00  9.8362542368450330e+05  -8.7278547528910097e+06  -3.2786220860092845e+06  -2.2971858390849116e+06  -5.1701253968059784e+06  1.9592493708315425e+05  -5.1046197978072409e+06  2.4948892450630339e+06  -5.6109513079899326e+06  2.4301951450070222e+06  -4.5403485946157640e+06  4.0967665221410030e+06  -3.7122531082204678e+06  6.9272309232556960e+05  -2.2523270043865819e+06  6.1580095495372191e+06  -7.1678501390662314e+06  4.7894229036337370e+06  -4.8792900861421954e+06  4.8965546331661623e+06  -6.1384277649374101e+06  2.9466197791742990e+06  -5.0374114971601125e+06  1.6996338140333621e+06  -4.4043858323966889e+06  -2.5485889792284938e+06  -2.1633802935136566e+06  -7.9706818091968168e+06  1.5364219253597825e+06  6.0897900528447557e-01  -1.5406718191165367e-08  1.8384109997198474e+07  -1.0075991731613606e+07  1.4156622739771219e+07  -6.9249381763257626e+06  1.1403114789364981e+07  -4.5804949948808784e+06  9.3069954932501521e+06  -4.8344242901944276e+06  7.3488822682944275e+06  -3.6428292620937233e+06  6.6968558431940367e+06  -5.3504653244004138e+06  5.2643130844868030e+06  -3.7130923066263846e+06  6.1831940170644717e+06  -7.1678500926900422e+06  5.4598828241156004e+06  -4.2652591766437842e+06  6.1014530955799064e+06  -6.5364099805455133e+06  6.9067379937942764e+06  -5.0829996915144594e+06  7.9834252326212302e+06  -5.8786103088964503e+06  8.7875805010385364e+06  -5.9937867792224400e+06  1.1216891079108205e+07  -1.0522914787193898e+07  1.6532386306087598e+07  4.5275534514722626e-01  0.0000000000000000e+00  9.3157211673930939e+05  -9.1032320457510222e+06  -4.3926822776656337e+06  -3.6889127427894715e+06  -4.8187803659541523e+06  -1.0424915098990727e+06  -6.0255368018696532e+06  1.5400355772013578e+06  -5.6912238328343183e+06  2.9341211546655134e+06  -7.2255152011938877e+06  4.9634998204303132e+06  -5.3511509901871551e+06  4.0975473535020999e+06  -5.7110569088126346e+06  4.7894228675780976e+06  -4.2652591674819039e+06  5.4178804179925453e+06  -6.8700440954249641e+06  5.6488397079703268e+06  -4.8694338236511610e+06  3.6494217613918050e+06  -5.2278611755768256e+06  1.7810844886173408e+06  -3.1863713450328731e+06  -1.6936915629295034e+06  -2.4539163909088341e+06  -7.4583937921412969e+06  3.1222852393260999e+06  3.2871169964543123e-01  8.2298557378547960e-09  2.0159541539758042e+07  -1.0247084441966996e+07  1.4663167754417423e+07  -5.3570936936327443e+06  1.1895705921605919e+07  -4.9974823954629796e+06  1.2046502915247230e+07  -6.2977100169156007e+06  1.1523357244299373e+07  -8.3602798398737628e+06  1.2051142508032225e+07  -7.2260270373452669e+06  6.6974697427297458e+06  -4.5404291981809316e+06  5.7701049287385019e+06  -4.8792900169158923e+06  6.1014530549301766e+06  -6.8700440700358171e+06  6.3451700648757936e+06  -4.7925838672813410e+06  5.1364462792751184e+06  -5.3597467477608556e+06  6.5087363512753733e+06  -4.3683705420043822e+06  6.9276143861604817e+06  -6.3556151881219670e+06  1.0026078740861809e+07  -1.0172768600369049e+07  1.5869255639664948e+07  2.3209239942654128e-01  0.0000000000000000e+00  1.6314450527025699e+06  -9.8318304306683224e+06  -5.4439477049053162e+06  -3.8216580592533783e+06  -8.1909898983573783e+06  1.2229318475318789e+06  -9.6004588753669057e+06  2.7635780075516156e+06  -8.8603573905290924e+06  4.6696173947159071e+06  -8.3606318150841380e+06  2.9345647717448412e+06  -3.6428997249490824e+06  2.4297552218097425e+06  -5.2333585629458800e+06  4.8965545422718273e+06  -6.5364099385589743e+06  5.6488396772655891e+06  -4.7925838617654173e+06  4.4715386197591480e+06  -5.2682914671603004e+06  4.7015087590395752e+06  -4.1243994218416144e+06  1.8650602802211680e+06  -3.9730835323082879e+06  -5.0168510659658299e+04  -2.1511525409075003e+06  -7.8342722388226604e+06  5.2454303519456144e+06  1.5852223169629212e-01  0.0000000000000000e+00  2.3463636901308961e+07  -1.1726338889239453e+07  1.7721958434852071e+07  -9.1162447926767226e+06  1.9635329492278907e+07  -1.1941173907510899e+07  2.0216336804027136e+07  -1.1398176143992463e+07  1.6513355890571158e+07  -8.8605835549542829e+06  1.1523654823297141e+07  -5.6912813351720609e+06  7.3485766225791965e+06  -5.6105620504422672e+06  8.2330430884186430e+06  -6.1384276218707897e+06  6.9067379459220292e+06  -4.8694337758595999e+06  5.1364462633746872e+06  -5.2682914530262193e+06  5.3272835013866052e+06  -4.2902389038324272e+06  4.0995469956845799e+06  -4.2812323071599919e+06  6.0689168440423189e+06  -5.3808873233882496e+06  6.8227139146672338e+06  -9.2899550033839867e+06  1.6278101420972999e+07  1.0400634967175883e-01  0.0000000000000000e+00  9.7862075906697218e+05  -7.3100744455854157e+06  -1.1195782486024445e+07  3.3227463813637890e+05  -1.3936697911860531e+07  2.5005665311974478e+06  -1.2518081256406162e+07  3.7941094280468007e+06  -1.1398312676627528e+07  2.7637652750890777e+06  -6.2977529719200553e+06  1.5398405077224015e+06  -4.8341574437246956e+06  2.4948394720810414e+06  -5.6170766254639355e+06  2.9466196851536669e+06  -5.0829996901183845e+06  3.6494217123689586e+06  -5.3597467341689579e+06  4.7015087351521887e+06  -4.2902388993534306e+06  3.5060039936742350e+06  -4.0163181071795588e+06  3.5516392658400070e+06  -4.3561073917191904e+06  -1.3007426643166954e+05  -2.1569505423703063e+06  -6.7552302476566406e+06  7.3734503101441180e+06  6.4930706102801272e-02  2.2058050483544975e-08  3.4416083995221078e+07  -2.0196814467475042e+07  2.9535421723635923e+07  -2.1260704918167472e+07  3.2122066731517844e+07  -1.8139825625616189e+07  2.4709573886992007e+07  -1.2518160296073664e+07  2.0216448514847443e+07  -9.6004893524867781e+06  1.2046387447023964e+07  -6.0253680885669980e+06  9.3069568588323519e+06  -5.1047757914291602e+06  8.6434277391825132e+06  -5.0374113290432869e+06  7.9834251802748553e+06  -5.2278610657867184e+06  6.5087363209994501e+06  -4.1243993798662843e+06  4.0995469893200332e+06  -4.0163180987341572e+06  4.1972428448090749e+06  -4.5021349820940224e+06  3.1079504412071197e+06  -3.3534905494940900e+06  3.8492914970666026e+06  -8.3988814856929742e+06  1.7419514133926433e+07  3.8061187830279689e-02  0.0000000000000000e+00  -5.6212633203807650e+06  -1.2242129514056891e+06  -1.8642311492404923e+07  3.3022934870392871e+06  -2.0258424485332586e+07  5.9859647431335161e+06  -1.8139868880937610e+07  2.5006302451308910e+06  -1.1941193730459129e+07  1.2228679516698227e+06  -4.9973825363399880e+06  -1.0425183976062424e+06  -4.5805880542227821e+06  1.9604685350969946e+05  -5.9359605378698735e+06  1.6996336755241894e+06  -5.8786103164476901e+06  1.7810844144156422e+06  -4.3683705656125592e+06  1.8650602492910153e+06  -4.2812323113881545e+06  3.5516392457548915e+06  -4.5021349769707043e+06  2.4718039106083983e+06  -2.9605163782265624e+06  4.3869501041049132e+05  -4.6876748874798361e+06  -3.5753014986691680e+06  1.0432822262690861e+07  2.0544481227839431e-02  0.0000000000000000e+00  6.0145265693065830e+07  -3.2863061442395922e+07  4.5643631165709645e+07  -3.0568183936139155e+07  3.7489766933515877e+07  -2.0258447830837063e+07  3.2122101626615178e+07  -1.3936710900138490e+07  1.9635296437698681e+07  -8.1909350712522408e+06  1.1895689028688500e+07  -4.8188325162263643e+06  1.1403187176238347e+07  -5.1701334497203929e+06  1.1130257043660255e+07  -4.4043856111792680e+06  8.7875804817245752e+06  -3.1863712132427124e+06  6.9276143777037943e+06  -3.9730834386832048e+06  6.0689168235159460e+06  -4.3561073445175383e+06  3.1079504366900306e+06  -2.9605163734374610e+06  1.3150203735496174e+06  -4.5909487699008370e+06  1.3015492084557589e+06  -3.8836776371658216e+06  1.8333389249695357e+07  9.9076394810182437e-03  0.0000000000000000e+00  -1.8202823798770405e+07  3.0035580148411989e+06  -3.0071139531424820e+07  1.1935615277958786e+07  -3.0568195295822788e+07  3.3023118555909274e+06  -2.12607