<?xml version="1.0"?>
<VTKFile type="UnstructuredGrid"  version="0.1"  >
<UnstructuredGrid>
<Piece  NumberOfPoints="961" NumberOfCells="1800">
<Points>
<DataArray  type="Float64"  NumberOfComponents="3"  format="ascii">-1 -1 0  -0.9333333333333333 -1 0  -0.8666666666666667 -1 0  -0.8 -1 0  -0.7333333333333334 -1 0  -0.6666666666666667 -1 0  -0.6 -1 0  -0.5333333333333333 -1 0  -0.4666666666666667 -1 0  -0.4 -1 0  -0.3333333333333334 -1 0  -0.2666666666666667 -1 0  -0.2 -1 0  -0.1333333333333333 -1 0  -0.06666666666666665 -1 0  0 -1 0  0.06666666666666665 -1 0  0.1333333333333333 -1 0  0.2 -1 0  0.2666666666666666 -1 0  0.3333333333333333 -1 0  0.3999999999999999 -1 0  0.4666666666666666 -1 0  0.5333333333333334 -1 0  0.6000000000000001 -1 0  0.6666666666666667 -1 0  0.7333333333333334 -1 0  0.8 -1 0  0.8666666666666667 -1 0  0.9333333333333333 -1 0  1 -1 0  -1 -0.9333333333333333 0  -0.9333333333333333 -0.9333333333333333 0  -0.8666666666666667 -0.9333333333333333 0  -0.8 -0.9333333333333333 0  -0.7333333333333334 -0.9333333333333333 0  -0.6666666666666667 -0.9333333333333333 0  -0.6 -0.9333333333333333 0  -0.5333333333333333 -0.9333333333333333 0  -0.4666666666666667 -0.9333333333333333 0  -0.4 -0.9333333333333333 0  -0.3333333333333334 -0.9333333333333333 0  -0.2666666666666667 -0.9333333333333333 0  -0.2 -0.9333333333333333 0  -0.1333333333333333 -0.9333333333333333 0  -0.06666666666666665 -0.9333333333333333 0  0 -0.9333333333333333 0  0.06666666666666665 -0.9333333333333333 0  0.1333333333333333 -0.9333333333333333 0  0.2 -0.9333333333333333 0  0.2666666666666666 -0.9333333333333333 0  0.3333333333333333 -0.9333333333333333 0  0.3999999999999999 -0.9333333333333333 0  0.4666666666666666 -0.9333333333333333 0  0.5333333333333334 -0.9333333333333333 0  0.6000000000000001 -0.9333333333333333 0  0.6666666666666667 -0.9333333333333333 0  0.7333333333333334 -0.9333333333333333 0  0.8 -0.9333333333333333 0  0.8666666666666667 -0.9333333333333333 0  0.9333333333333333 -0.9333333333333333 0  1 -0.9333333333333333 0  -1 -0.8666666666666667 0  -0.9333333333333333 -0.8666666666666667 0  -0.8666666666666667 -0.8666666666666667 0  -0.8 -0.8666666666666667 0  -0.7333333333333334 -0.8666666666666667 0  -0.6666666666666667 -0.8666666666666667 0  -0.6 -0.8666666666666667 0  -0.5333333333333333 -0.8666666666666667 0  -0.4666666666666667 -0.8666666666666667 0  -0.4 -0.8666666666666667 0  -0.3333333333333334 -0.8666666666666667 0  -0.2666666666666667 -0.8666666666666667 0  -0.2 -0.8666666666666667 0  -0.1333333333333333 -0.8666666666666667 0  -0.06666666666666665 -0.8666666666666667 0  0 -0.8666666666666667 0  0.06666666666666665 -0.8666666666666667 0  0.1333333333333333 -0.8666666666666667 0  0.2 -0.8666666666666667 0  0.2666666666666666 -0.8666666666666667 0  0.3333333333333333 -0.8666666666666667 0  0.3999999999999999 -0.8666666666666667 0  0.4666666666666666 -0.8666666666666667 0  0.5333333333333334 -0.8666666666666667 0  0.6000000000000001 -0.8666666666666667 0  0.6666666666666667 -0.8666666666666667 0  0.7333333333333334 -0.8666666666666667 0  0.8 -0.8666666666666667 0  0.8666666666666667 -0.8666666666666667 0  0.9333333333333333 -0.8666666666666667 0  1 -0.8666666666666667 0  -1 -0.8 0  -0.9333333333333333 -0.8 0  -0.8666666666666667 -0.8 0  -0.8 -0.8 0  -0.7333333333333334 -0.8 0  -0.6666666666666667 -0.8 0  -0.6 -0.8 0  -0.5333333333333333 -0.8 0  -0.4666666666666667 -0.8 0  -0.4 -0.8 0  -0.3333333333333334 -0.8 0  -0.2666666666666667 -0.8 0  -0.2 -0.8 0  -0.1333333333333333 -0.8 0  -0.06666666666666665 -0.8 0  0 -0.8 0  0.06666666666666665 -0.8 0  0.1333333333333333 -0.8 0  0.2 -0.8 0  0.2666666666666666 -0.8 0  0.3333333333333333 -0.8 0  0.3999999999999999 -0.8 0  0.4666666666666666 -0.8 0  0.5333333333333334 -0.8 0  0.6000000000000001 -0.8 0  0.6666666666666667 -0.8 0  0.7333333333333334 -0.8 0  0.8 -0.8 0  0.8666666666666667 -0.8 0  0.9333333333333333 -0.8 0  1 -0.8 0  -1 -0.7333333333333334 0  -0.9333333333333333 -0.7333333333333334 0  -0.8666666666666667 -0.7333333333333334 0  -0.8 -0.7333333333333334 0  -0.7333333333333334 -0.7333333333333334 0  -0.6666666666666667 -0.7333333333333334 0  -0.6 -0.7333333333333334 0  -0.5333333333333333 -0.7333333333333334 0  -0.4666666666666667 -0.7333333333333334 0  -0.4 -0.7333333333333334 0  -0.3333333333333334 -0.7333333333333334 0  -0.2666666666666667 -0.7333333333333334 0  -0.2 -0.7333333333333334 0  -0.1333333333333333 -0.7333333333333334 0  -0.06666666666666665 -0.7333333333333334 0  0 -0.7333333333333334 0  0.06666666666666665 -0.7333333333333334 0  0.1333333333333333 -0.7333333333333334 0  0.2 -0.7333333333333334 0  0.2666666666666666 -0.7333333333333334 0  0.3333333333333333 -0.7333333333333334 0  0.3999999999999999 -0.7333333333333334 0  0.4666666666666666 -0.7333333333333334 0  0.5333333333333334 -0.7333333333333334 0  0.6000000000000001 -0.7333333333333334 0  0.6666666666666667 -0.7333333333333334 0  0.7333333333333334 -0.7333333333333334 0  0.8 -0.7333333333333334 0  0.8666666666666667 -0.7333333333333334 0  0.9333333333333333 -0.7333333333333334 0  1 -0.7333333333333334 0  -1 -0.6666666666666667 0  -0.9333333333333333 -0.6666666666666667 0  -0.8666666666666667 -0.6666666666666667 0  -0.8 -0.6666666666666667 0  -0.7333333333333334 -0.6666666666666667 0  -0.6666666666666667 -0.6666666666666667 0  -0.6 -0.6666666666666667 0  -0.5333333333333333 -0.6666666666666667 0  -0.4666666666666667 -0.6666666666666667 0  -0.4 -0.6666666666666667 0  -0.3333333333333334 -0.6666666666666667 0  -0.2666666666666667 -0.6666666666666667 0  -0.2 -0.6666666666666667 0  -0.1333333333333333 -0.6666666666666667 0  -0.06666666666666665 -0.6666666666666667 0  0 -0.6666666666666667 0  0.06666666666666665 -0.6666666666666667 0  0.1333333333333333 -0.6666666666666667 0  0.2 -0.6666666666666667 0  0.2666666666666666 -0.6666666666666667 0  0.3333333333333333 -0.6666666666666667 0  0.3999999999999999 -0.6666666666666667 0  0.4666666666666666 -0.6666666666666667 0  0.5333333333333334 -0.6666666666666667 0  0.6000000000000001 -0.6666666666666667 0  0.6666666666666667 -0.6666666666666667 0  0.7333333333333334 -0.6666666666666667 0  0.8 -0.6666666666666667 0  0.8666666666666667 -0.6666666666666667 0  0.9333333333333333 -0.6666666666666667 0  1 -0.6666666666666667 0  -1 -0.6 0  -0.9333333333333333 -0.6 0  -0.8666666666666667 -0.6 0  -0.8 -0.6 0  -0.7333333333333334 -0.6 0  -0.6666666666666667 -0.6 0  -0.6 -0.6 0  -0.5333333333333333 -0.6 0  -0.4666666666666667 -0.6 0  -0.4 -0.6 0  -0.3333333333333334 -0.6 0  -0.2666666666666667 -0.6 0  -0.2 -0.6 0  -0.1333333333333333 -0.6 0  -0.06666666666666665 -0.6 0  0 -0.6 0  0.06666666666666665 -0.6 0  0.1333333333333333 -0.6 0  0.2 -0.6 0  0.2666666666666666 -0.6 0  0.3333333333333333 -0.6 0  0.3999999999999999 -0.6 0  0.4666666666666666 -0.6 0  0.5333333333333334 -0.6 0  0.6000000000000001 -0.6 0  0.6666666666666667 -0.6 0  0.7333333333333334 -0.6 0  0.8 -0.6 0  0.8666666666666667 -0.6 0  0.9333333333333333 -0.6 0  1 -0.6 0  -1 -0.5333333333333333 0  -0.9333333333333333 -0.5333333333333333 0  -0.8666666666666667 -0.5333333333333333 0  -0.8 -0.5333333333333333 0  -0.7333333333333334 -0.5333333333333333 0  -0.6666666666666667 -0.5333333333333333 0  -0.6 -0.5333333333333333 0  -0.5333333333333333 -0.5333333333333333 0  -0.4666666666666667 -0.5333333333333333 0  -0.4 -0.5333333333333333 0  -0.3333333333333334 -0.5333333333333333 0  -0.2666666666666667 -0.5333333333333333 0  -0.2 -0.5333333333333333 0  -0.1333333333333333 -0.5333333333333333 0  -0.06666666666666665 -0.5333333333333333 0  0 -0.5333333333333333 0  0.06666666666666665 -0.5333333333333333 0  0.1333333333333333 -0.5333333333333333 0  0.2 -0.5333333333333333 0  0.2666666666666666 -0.5333333333333333 0  0.3333333333333333 -0.5333333333333333 0  0.3999999999999999 -0.5333333333333333 0  0.4666666666666666 -0.5333333333333333 0  0.5333333333333334 -0.5333333333333333 0  0.6000000000000001 -0.5333333333333333 0  0.6666666666666667 -0.5333333333333333 0  0.7333333333333334 -0.5333333333333333 0  0.8 -0.5333333333333333 0  0.8666666666666667 -0.5333333333333333 0  0.9333333333333333 -0.5333333333333333 0  1 -0.5333333333333333 0  -1 -0.4666666666666667 0  -0.9333333333333333 -0.4666666666666667 0  -0.8666666666666667 -0.4666666666666667 0  -0.8 -0.4666666666666667 0  -0.7333333333333334 -0.4666666666666667 0  -0.6666666666666667 -0.4666666666666667 0  -0.6 -0.4666666666666667 0  -0.5333333333333333 -0.4666666666666667 0  -0.4666666666666667 -0.4666666666666667 0  -0.4 -0.4666666666666667 0  -0.3333333333333334 -0.4666666666666667 0  -0.2666666666666667 -0.4666666666666667 0  -0.2 -0.4666666666666667 0  -0.1333333333333333 -0.4666666666666667 0  -0.06666666666666665 -0.4666666666666667 0  0 -0.4666666666666667 0  0.06666666666666665 -0.4666666666666667 0  0.1333333333333333 -0.4666666666666667 0  0.2 -0.4666666666666667 0  0.2666666666666666 -0.4666666666666667 0  0.3333333333333333 -0.4666666666666667 0  0.3999999999999999 -0.4666666666666667 0  0.4666666666666666 -0.4666666666666667 0  0.5333333333333334 -0.4666666666666667 0  0.6000000000000001 -0.4666666666666667 0  0.6666666666666667 -0.4666666666666667 0  0.7333333333333334 -0.4666666666666667 0  0.8 -0.4666666666666667 0  0.8666666666666667 -0.4666666666666667 0  0.9333333333333333 -0.4666666666666667 0  1 -0.4666666666666667 0  -1 -0.4 0  -0.9333333333333333 -0.4 0  -0.8666666666666667 -0.4 0  -0.8 -0.4 0  -0.7333333333333334 -0.4 0  -0.6666666666666667 -0.4 0  -0.6 -0.4 0  -0.5333333333333333 -0.4 0  -0.4666666666666667 -0.4 0  -0.4 -0.4 0  -0.3333333333333334 -0.4 0  -0.2666666666666667 -0.4 0  -0.2 -0.4 0  -0.1333333333333333 -0.4 0  -0.06666666666666665 -0.4 0  0 -0.4 0  0.06666666666666665 -0.4 0  0.1333333333333333 -0.4 0  0.2 -0.4 0  0.2666666666666666 -0.4 0  0.3333333333333333 -0.4 0  0.3999999999999999 -0.4 0  0.4666666666666666 -0.4 0  0.5333333333333334 -0.4 0  0.6000000000000001 -0.4 0  0.6666666666666667 -0.4 0  0.7333333333333334 -0.4 0 
[...]
<PointData  Scalars="f_24"> 
<DataArray  type="Float64"  Name="f_24"  format="ascii">0.0000000000000000e+00  0.0000000000000000e+00  0.0000000000000000e+00  0.0000000000000000e+00  0.0000000000000000e+00  0.0000000000000000e+00  0.0000000000000000e+00  0.0000000000000000e+00  0.0000000000000000e+00  0.0000000000000000e+00  0.0000000000000000e+00  0.0000000000000000e+00  0.0000000000000000e+00  0.0000000000000000e+00  0.0000000000000000e+00  0.0000000000000000e+00  0.0000000000000000e+00  0.0000000000000000e+00  0.0000000000000000e+00  0.0000000000000000e+00  0.0000000000000000e+00  0.0000000000000000e+00  0.0000000000000000e+00  0.0000000000000000e+00  0.0000000000000000e+00  1.0555199084310156e-07  0.0000000000000000e+00  -1.7132473591703050e-07  0.0000000000000000e+00  0.0000000000000000e+00  1.0996628460655561e+01  0.0000000000000000e+00  1.0058980280760525e+07  1.1007242892602295e+07  1.6017562342954187e+07  1.1572202065112175e+07  1.5837192467555396e+07  9.0891613927981760e+06  1.5087671417511169e+07  6.4963056840862371e+06  1.4132106291948937e+07  4.6911236980839064e+06  1.3795216073239075e+07  2.8825845866258792e+06  1.4370001564651435e+07  1.5286970352508517e+06  1.5018693350381596e+07  1.0551242625345956e+06  1.5955595272315633e+07  1.0059863563817797e+06  1.7469039464129563e+07  1.5954099842992297e+06  2.0285442149589691e+07  1.0191628428768313e+06  2.9643761571710739e+07  -4.6596816954305153e+06  5.1646580732735947e+07  -1.5472950148399772e+07  8.5517983125502765e+07  -9.5123809898723923e+06  1.8591112647478464e+08  9.6021066349147226e+00  0.0000000000000000e+00  1.1007242875256078e+07  1.2132060950390071e+07  4.9542112326715998e+06  2.2822920672430401e+06  -3.1244133114571813e+06  -2.8557956175654447e+06  -6.9905587514422284e+06  -5.5921800778367389e+06  -7.7754129670815030e+06  -6.5423194925685115e+06  -8.5581247276679352e+06  -6.2447559555466073e+06  -8.8780673872378897e+06  -6.6978605020435872e+06  -8.3929956477427892e+06  -7.3470561918234425e+06  -8.4968101257439852e+06  -7.6557605205907701e+06  -8.6248936120753586e+06  -8.2570615604208307e+06  -9.8668266212306321e+06  -6.0728918464457337e+06  -1.7100459777281303e+07  -8.4814402235436381e+05  -2.7947918417746343e+07  2.7552448271623701e+06  -2.4172985176944748e+07  -1.4886900141405828e+07  -9.5123879120195806e+06  8.3446218061829374e+00  -1.1335453423678558e-09  1.6017562335528394e+07  4.9542112357344339e+06  1.8817294477764354e+06  -3.7214513183087837e+06  1.2985821686791810e+06  -3.8652575381710841e+06  3.4029414806838869e+06  -1.7857204610303638e+06  5.8622520721392091e+06  -1.8600422503103851e+06  8.5384937396004759e+06  -2.1728695532224206e+06  9.5187946936682630e+06  -1.9498493497925077e+06  1.0429538617620917e+07  -2.9049855112241348e+06  1.2036457353897864e+07  -3.8334565420261989e+06  1.2509266947951181e+07  -4.6812446647238312e+06  1.5194501699126085e+07  -9.5304065708856154e+06  2.5395850255620163e+07  -1.5823240700947363e+07  3.9266116407209113e+07  -2.5558905197522637e+07  4.6964055868401654e+07  -2.4172984700890739e+07  8.5517984470100567e+07  7.2148876864154241e+00  0.0000000000000000e+00  1.1572202011283757e+07  2.2822920840735375e+06  -3.7214513233296424e+06  6.1880448356175458e+05  -3.8254682342137177e+06  4.0746109554453491e+05  -2.9121870974339647e+06  -2.1286822030213932e+05  -4.7571865923139146e+06  -2.2572068481315911e+05  -5.6486012293746620e+06  -1.6700670623652698e+06  -5.3606795534024732e+06  -2.4139562322896444e+06  -6.0858677797512515e+06  -2.1977967803745153e+06  -6.1565471993940510e+06  -3.3764833437972562e+06  -4.7906471736668991e+06  -3.4528030913605839e+06  -7.9535113934680335e+06  1.8490579139334516e+05  -1.8248304832017455e+07  2.8572014773030891e+06  -2.6078625297077496e+07  1.0383183855592854e+07  -2.5558912480089538e+07  2.7552497421891470e+06  -1.5472955943738678e+07  6.2039447993043666e+00  -6.4402891254041191e-09  1.5837192452369040e+07  -3.1244132794817635e+06  1.2985821742691775e+06  -3.8254682373819482e+06  1.1316530762892992e+06  -2.6246883237939584e+06  2.4997837047017328e+06  -3.9389448431821070e+06  4.9655162895797370e+06  -3.6423486526068700e+06  5.6951136055245735e+06  -2.9603598279503710e+06  7.3010040246900925e+06  -3.9918981392476694e+06  9.3144512654630542e+06  -4.6468223946538176e+06  9.5426803690875228e+06  -4.3559172917191060e+06  9.9534327380063534e+06  -7.2503564657500014e+06  1.6588855008791242e+07  -1.2139148411468361e+07  2.7352106144334018e+07  -1.7437154129427865e+07  3.2110769267053612e+07  -2.6078634094376586e+07  3.9266124693722554e+07  -2.7947919314658172e+07  5.1646580273179136e+07  5.3031580153624436e+00  0.0000000000000000e+00  9.0891613145222068e+06  -2.8557955697286492e+06  -3.8652575829121512e+06  4.0746110548920161e+05  -2.6246883278959515e+06  1.9381214121713426e+06  -4.0820550298856408e+06  2.8030758121106103e+06  -3.8951446012015734e+06  1.3894502462539179e+06  -3.9259324166873964e+06  1.3606832547033418e+06  -5.1842553428945215e+06  1.3153553903834284e+06  -5.2209684314492382e+06  2.7599991130186267e+04  -4.0720019546316029e+06  -1.0565326293032737e+06  -4.4630696624958050e+06  8.4254108296229935e+05  -1.0450904607030651e+07  1.9083215915212536e+06  -1.5755826167639675e+07  4.9525412231730958e+06  -1.7437175206951525e+07  2.8572177639300851e+06  -1.5823246903926106e+07  -8.4814472558323096e+05  -4.6596836678981334e+06  4.5042190174845187e+00  -3.7429276254515650e-09  1.5087671409457047e+07  -6.9905587042103782e+06  3.4029414762376584e+06  -2.9121870795131507e+06  2.4997837086011125e+06  -4.0820550342853912e+06  3.3575939941294715e+06  -3.6540373310671570e+06  3.3327959357012836e+06  -3.6736969510268592e+06  5.4627366847033184e+06  -4.5666261213984862e+06  6.7626528677641787e+06  -4.3806688853892460e+06  7.3381931866019191e+06  -4.4384909373966046e+06  7.8956024950801805e+06  -5.2501064036553707e+06  1.0205205849652162e+07  -8.3632054453023262e+06  1.7137378304865327e+07  -1.0931428586992906e+07  2.0930029239701033e+07  -1.5755862781057158e+07  2.7352136321346141e+07  -1.8248310907546289e+07  2.5395844883158717e+07  -1.7100453961962271e+07  2.9643760634415586e+07  3.7991450679732250e+00  0.0000000000000000e+00  6.4963055805718563e+06  -5.5921800103041911e+06  -1.7857205346871372e+06  -2.1286819373430740e+05  -3.9389448834683392e+06  2.8030758292636033e+06  -3.6540373382960763e+06  2.8354105391997513e+06  -3.7936032105487166e+06  3.9447241087420033e+06  -4.6458890241813948e+06  3.0867424577824273e+06  -4.3824753609357141e+06  2.4989623784406455e+06  -4.8334201074433289e+06  2.1119570696321204e+06  -4.1703177360544964e+06  1.2790557534474954e+06  -5.4500408497159975e+06  2.2843648495875583e+06  -9.8811902747462038e+06  3.0837387121805656e+06  -1.0931496824786089e+07  1.9083764594303183e+06  -1.2139160542078819e+07  1.8489287570501969e+05  -9.5303967264487855e+06  -6.0728929529918302e+06  1.0191588407183794e+06  3.1802792551596668e+00  0.0000000000000000e+00  1.4132106292640552e+07  -7.7754128981673745e+06  5.8622520566350268e+06  -4.7571865667518601e+06  4.9655163075001147e+06  -3.8951445977187208e+06  3.3327959411879447e+06  -3.7936032143905540e+06  4.4898192193444958e+06  -4.5536298941990845e+06  4.3757239686006084e+06  -4.1840143482689708e+06  5.9059489707230590e+06  -5.2633775520720864e+06  7.0449625947621614e+06  -4.8121291050504772e+06  6.2844289444755493e+06  -4.8886576882449994e+06  9.8440718268739227e+06  -7.6311857630399987e+06  1.4068743661155980e+07  -9.8813069258771166e+06  1.7137474116144385e+07  -1.0450921432871610e+07  1.6588826972296514e+07  -7.9534866004283335e+06  1.5194497580675192e+07  -9.8668305992035586e+06  2.0285444772352349e+07  2.6402905106432839e+00  0.0000000000000000e+00  4.6911235739154611e+06  -6.5423194115350647e+06  -1.8600423703418109e+06  -2.2572061693281028e+05  -3.6423487321113106e+06  1.3894502724546881e+06  -3.6736969868628769e+06  3.9447241291651283e+06  -4.5536299062973205e+06  3.8103322949702702e+06  -4.1131764424529448e+06  4.8335066032695398e+06  -5.5995623631385025e+06  4.1923490904900040e+06  -4.4835247834630311e+06  2.0799335286413594e+06  -3.1220657830838575e+06  2.5085367975899819e+06  -7.1693341003645025e+06  3.9785978324346212e+06  -7.6313797511749668e+06  2.2845254056933289e+06  -8.3632321876604287e+06  8.4248684707765002e+05  -7.2503104400800960e+06  -3.4528107570920428e+06  -4.6812572596622612e+06  -8.2570529298531115e+06  1.5954073515466866e+06  2.1721735230924577e+00  3.9598199541539497e-09  1.3795216086039672e+07  -8.5581246534159072e+06  8.5384937406443860e+06  -5.6486011960508144e+06  5.6951136139348922e+06  -3.9259323969999817e+06  5.4627367108620312e+06  -4.6458890359199429e+06  4.3757239822521694e+06  -4.1131764471812695e+06  5.4309934819410220e+06  -5.8840239999351362e+06  5.2253359421637468e+06  -4.1792136886238987e+06  4.9422149588238681e+06  -3.8883904691445781e+06  5.7350759938293407e+06  -6.1891568065563999e+06  1.0317522059575351e+07  -7.1696354298726553e+06  9.8443268134620935e+06  -5.4500776617075512e+06  1.0205107290270964e+07  -4.4629842022113344e+06  9.9534185659121405e+06  -4.7906700722602606e+06  1.2509284440739157e+07  -8.6248945917777959e+06  1.7469036506487016e+07  1.7692489106433249e+00  0.0000000000000000e+00  2.8825844255077080e+06  -6.2447558422806105e+06  -2.1728697257502242e+06  -1.6700669750699482e+06  -2.9603599390129410e+06  1.3606833173872929e+06  -4.5666262150117680e+06  3.0867424995793016e+06  -4.1840143891129387e+06  4.8335066295335684e+06  -5.8840240216725729e+06  4.6400079268785017e+06  -3.6533540419141622e+06  4.1024617300675097e+06  -4.8909310702585569e+06  3.5086562187806885e+06  -4.5821625125050135e+06  4.2508801086100265e+06  -6.1895954672605079e+06  2.5089169833442112e+06  -4.8887074620049801e+06  1.2788891721731436e+06  -5.2499626482945150e+06  -1.0565551330865456e+06  -4.3559627455970589e+06  -3.3764486844739593e+06  -3.8334604601606163e+06  -7.6557686086695231e+06  1.0059887654107705e+06  1.4251630485009605e+00  3.9525459545105371e-07  1.4370001605064036e+07  -8.8780673102456555e+06  9.5187946978081632e+06  -5.3606794945954951e+06  7.3010040437936680e+06  -5.1842553376987753e+06  6.7626529132397901e+06  -4.3824753624600768e+06  5.9059490118768252e+06  -5.5995623991662050e+06  5.2253359770059017e+06  -3.6533540497689391e+06  4.6767488522863127e+06  -6.1385075655929781e+06  5.2947932985209022e+06  -3.1790919199045352e+06  4.5085389923700001e+06  -4.5827498899104781e+06  5.7356020635166196e+06  -3.1221263175256206e+06  6.2841675264146710e+06  -4.1700894094430385e+06  7.8955697110529952e+06  -4.0720817024317086e+06  9.5427425806608759e+06  -6.1565515671479944e+06  1.2036438378012389e+07  -8.4967993285084143e+06  1.5955595575718421e+07  1.1338881551387816e+00  0.0000000000000000e+00  1.5286968198156424e+06  -6.6978603645358868e+06  -1.9498495649198340e+06  -2.4139561136939470e+06  -3.9918983253321759e+06  1.3153555073092461e+06  -4.3806690284844730e+06  2.4989624584764573e+06  -5.2633776743333591e+06  4.1923491682073814e+06  -4.1792137478527944e+06  4.1024617609255663e+06  -6.1385076053054482e+06  5.2730838461506050e+06  -1.9281095117867913e+06  5.9330276579481817e+05  -3.1798109007791029e+06  3.5093252884605350e+06  -3.8884598921442032e+06  2.0795570746287794e+06  -4.8117961988248434e+06  2.1119147984071127e+06  -4.4386250035673575e+06  2.7704744589723436e+04  -4.6468298598395102e+06  -2.1978329401602135e+06  -2.9049651677548639e+06  -7.3470542198703792e+06  1.0551178650985735e+06  8.8972227505867019e-01  0.0000000000000000e+00  1.5018693418344745e+07  -8.3929955466486439e+06  1.0429538633212974e+07  -6.0858677300782269e+06  9.3144513299449030e+06  -5.2209684339014273e+06  7.3381932539528012e+06  -4.8334201398935560e+06  7.0449626970937541e+06  -4.4835248348392062e+06  4.9422150345973894e+06  -4.8909311572918138e+06  5.2947934127106685e+06  -1.9281095599439370e+06  -1.9701786392106023e+05  -1.9289062884463132e+06  5.2955689454771336e+06  -4.8910048932004673e+06  4.9417219689022116e+06  -4.4830780782021005e+06  7.0449136157760145e+06  -4.8336252698551277e+06  7.3383551664293977e+06  -5.2209760822995454e+06  9.3143870501065329e+06  -6.0858289183578277e+06  1.0429542355963720e+07  -8.3930095098583326e+06  1.5018698098543555e+07  6.8728927879097257e-01  0.0000000000000000e+00  1.0551239775933083e+06  -7.3470560176394414e+06  -2.9049858197123921e+06  -2.1977965834743292e+06  -4.6468226766677042e+06  2.7600161177861741e+04  -4.4384911722151032e+06  2.1119572468432030e+06  -4.8121293347833799e+06  2.0799336799777900e+06  -3.8883906655141916e+06  3.5086563956535100e+06  -3.1790920591696501e+06  5.9330276576649968e+05  -1.9289062402852483e+06  5.2738990999710821e+06  -6.1385831988719767e+06  4.1018798852552250e+06  -4.1786687039175858e+06  4.1922977778857071e+06  -5.2636649275696054e+06  2.4991920079596937e+06  -4.3806754967651311e+06  1.3152515859028327e+06  -3.9918350570785347e+06  -2.4139482272416567e+06  -1.9498784366687110e+06  -6.6978487582548419e+06  1.5286984109357556e+06  5.2153886289449880e-01  7.7033590955826834e-09  1.5955595379164672e+07  -8.4968100158946086e+06  1.2036457429033756e+07  -6.1565471764967376e+06  9.5426804804435112e+06  -4.0720019808693859e+06  7.8956026471491996e+06  -4.1703178387107281e+06  6.2844291153909480e+06  -3.1220658776108413e+06  5.7350761522013238e+06  -4.5821625938471751e+06  4.5085389922942724e+06  -3.1798107614227454e+06  5.2955688312983178e+06  -6.1385831591523821e+06  4.6761335130619593e+06  -3.6527509794734824e+06  5.2252852104413342e+06  -5.5999236908241790e+06  5.9062446652422575e+06  -4.3824762640106203e+06  6.7624992659394136e+06  -5.1841597172330003e+06  7.3010183324472951e+06  -5.3607283159538638e+06  9.5188152825260330e+06  -8.8780604001214299e+06  1.4369993937851371e+07  3.8774654907577061e-01  0.0000000000000000e+00  1.0059859437957745e+06  -7.6557602516975272e+06  -3.8334570031460896e+06  -3.3764830603549792e+06  -4.3559176858782200e+06  -1.0565323683615730e+06  -5.2501067700048927e+06  1.2790559929373292e+06  -4.8886579521644991e+06  2.5085369302582154e+06  -6.1891569647650141e+06  4.2508801085647475e+06  -4.5827498084315732e+06  3.5093251114823930e+06  -4.8910048062212933e+06  4.1018798543778593e+06  -3.6527509716286454e+06  4.6399578819496203e+06  -5.8844303063224386e+06  4.8338513192609278e+06  -4.1840083201970691e+06  3.0865376797486185e+06  -4.5664967387436731e+06  1.3607074200213589e+06  -2.9604366018779981e+06  -1.6700339631585907e+06  -2.1728566882254872e+06  -6.2447740912973620e+06  2.8825880987907685e+06  2.8151368859278236e-01  -8.2298557378547960e-09  1.7469039646012608e+07  -8.6248934914306812e+06  1.2509267074701855e+07  -4.7906471345674805e+06  9.9534328860226329e+06  -4.4630696926307241e+06  1.0205206013989020e+07  -5.4500408616749598e+06  9.8440718942396641e+06  -7.1693340464248164e+06  1.0317522059467683e+07  -6.1895953090130910e+06  5.7356019050786290e+06  -3.8884596956319073e+06  4.9417218932390735e+06  -4.1786686446301909e+06  5.2252851756260712e+06  -5.8844302845773790e+06  5.4313563336365689e+06  -4.1131649298852012e+06  4.3754796376996674e+06  -4.6457298795198994e+06  5.4627722505662283e+06  -3.9260394913133797e+06  5.6951604123473885e+06  -5.6485779638260975e+06  8.5384607687251978e+06  -8.5581158339022361e+06  1.3795221088207556e+07  1.9876745344747918e-01  0.0000000000000000e+00  1.5954093699411261e+06  -8.2570611919679958e+06  -4.6812452639958533e+06  -3.4528027758557224e+06  -7.2503569312290149e+06  8.4254132626152586e+05  -8.3632057661159905e+06  2.2843649380987808e+06  -7.6311859113997379e+06  3.9785978320166725e+06  -7.1696354833340552e+06  2.5089168506570850e+06  -3.1221262230656226e+06  2.0795569230720485e+06  -4.4830780270278500e+06  4.1922977000399767e+06  -5.5999236548664849e+06  4.8338512929663155e+06  -4.1131649251627219e+06  3.8100729989749114e+06  -4.5534537778217951e+06  3.9447694745898312e+06  -3.6738321553237042e+06  1.3895103757868926e+06  -3.6423145527983080e+06  -2.2577041576824000e+05  -1.8600297820456526e+06  -6.5423066394539829e+06  4.6911141769141806e+06  1.3576084519327861e-01  0.0000000000000000e+00  2.0285442376290485e+07  -9.8668263669608403e+06  1.5194501800450714e+07  -7.9535112597340653e+06  1.6588855142273005e+07  -1.0450904530513929e+07  1.7137378374666784e+07  -9.8811901358423177e+06  1.4068743660932014e+07  -7.6313796020443207e+06  9.8443267454084661e+06  -4.8887071980402078e+06  6.2841673557589892e+06  -4.8117959687117804e+06  7.0449135137896994e+06  -5.2636648050493849e+06  5.9062446242404133e+06  -4.1840082792714904e+06  4.3754796240804764e+06  -4.5534537657196037e+06  4.4898684508108143e+06  -3.7937549556147987e+06  3.3328654828532473e+06  -3.8950992940363106e+06  4.9654493577811476e+06  -4.7571692023455705e+06  5.8622736416320223e+06  -7.7754314703887282e+06  1.4132108481569741e+07  8.9072919728374084e-02  0.0000000000000000e+00  1.0191619909234098e+06  -6.0728914127642456e+06  -9.5304073133545313e+06  1.8490609819426553e+05  -1.2139148914660787e+07  1.9083217407508567e+06  -1.0931428858874815e+07  3.0837387114041308e+06  -9.8813070644618515e+06  2.2845253168617543e+06  -5.4500776489872653e+06  1.2788889324786330e+06  -4.1700893073379756e+06  2.1119146205085418e+06  -4.8336252380108451e+06  2.4991919274420263e+06  -4.3824762628095392e+06  3.0865376377668176e+06  -4.6457298678764254e+06  3.9447694541331897e+06  -3.7937549517768170e+06  2.8354835204634899e+06  -3.6539854373113611e+06  2.8029960893931449e+06  -3.9389246182021694e+06  -2.1283701273583763e+05  -1.7857499354521472e+06  -5.5921764768736959e+06  6.4963121469718246e+06  5.5607642191166928e-02  1.1029025241772487e-08  2.9643761735863186e+07  -1.7100459287555207e+07  2.5395850390509415e+07  -1.8248304629404522e+07  2.7352106293039232e+07  -1.5755825952346839e+07  2.0930029237989746e+07  -1.0931496549647231e+07  1.7137474045508005e+07  -8.3632318671810711e+06  1.0205107125250878e+07  -5.2499622813685732e+06  7.8955695600465620e+06  -4.4386247675193883e+06  7.3383551001873910e+06  -4.3806753527869564e+06  6.7624992211061297e+06  -4.5664966447232859e+06  5.4627722246341547e+06  -3.6738321193780215e+06  3.3328654774017390e+06  -3.6539854300791174e+06  3.3575094467699504e+06  -4.0820328890565354e+06  2.4998220904043126e+06  -2.9122246580494177e+06  3.4029448181306105e+06  -6.9905435662899902e+06  1.5087663416714204e+07  3.2596178930906147e-02  0.0000000000000000e+00  -4.6596829588330658e+06  -8.4814338394148322e+05  -1.5823241696853889e+07  2.8572017405968709e+06  -1.7437154664256647e+07  4.9525412240990298e+06  -1.5755862996869471e+07  1.9083763063191141e+06  -1.0450921507196018e+07  8.4248660487014288e+05  -4.4629841717589721e+06  -1.0565553953985013e+06  -4.0720816782931900e+06  2.7704572262897487e+04  -5.2209760819326751e+06  1.3152514672835707e+06  -5.1841597236934621e+06  1.3607073564776580e+06  -3.9260395115249562e+06  1.3895103493053545e+06  -3.8950992976475526e+06  2.8029960722018955e+06  -4.0820328846603939e+06  1.9381625589710458e+06  -2.6247310779866804e+06  4.0746435025865928e+05  -3.8652362964288848e+06  -2.8558094440040071e+06  9.0891604762718678e+06  1.7594605537048880e-02  0.0000000000000000e+00  5.1646580737911865e+07  -2.7947917652279686e+07  3.9266116648205988e+07  -2.6078624856055666e+07  3.2110769257445991e+07  -1.7437174657704771e+07  2.7352136177711785e+07  -1.2139160038040925e+07  1.6588826833800931e+07  -7.2503099764863644e+06  9.9534184186486527e+06  -4.3559623481780225e+06  9.5427424736459013e+06  -4.6468295733149732e+06  9.3143869897043295e+06  -3.9918348676315844e+06  7.3010183159025712e+06  -2.9604364890124341e+06  5.6951604051094716e+06  -3.6423144726069733e+06  4.9654493402155722e+06  -3.9389245777630592e+06  2.4998220865478204e+06  -2.6247310738803437e+06  1.1316561863626505e+06  -3.8254427815570296e+06  1.2985637918823438e+06  -3.1244144299292029e+06  1.5837199178302681e+07  8.4850528245799008e-03  0.0000000000000000e+00  -1.5472952317389386e+07  2.7552456960439193e+06  -2.5558906272289511e+07  1.0383183842244232e+07  -2.6078634584657434e+07  2.8572174717026986e+06  -1.824831