<?xml version="1.0"?>
<VTKFile type="UnstructuredGrid"  version="0.1"  >
<UnstructuredGrid>
<Piece  NumberOfPoints="961" NumberOfCells="1800">
<Points>
<DataArray  type="Float64"  NumberOfComponents="3"  format="ascii">-1 -1 0  -0.9333333333333333 -1 0  -0.8666666666666667 -1 0  -0.8 -1 0  -0.7333333333333334 -1 0  -0.6666666666666667 -1 0  -0.6 -1 0  -0.5333333333333333 -1 0  -0.4666666666666667 -1 0  -0.4 -1 0  -0.3333333333333334 -1 0  -0.2666666666666667 -1 0  -0.2 -1 0  -0.1333333333333333 -1 0  -0.06666666666666665 -1 0  0 -1 0  0.06666666666666665 -1 0  0.1333333333333333 -1 0  0.2 -1 0  0.2666666666666666 -1 0  0.3333333333333333 -1 0  0.3999999999999999 -1 0  0.4666666666666666 -1 0  0.5333333333333334 -1 0  0.6000000000000001 -1 0  0.6666666666666667 -1 0  0.7333333333333334 -1 0  0.8 -1 0  0.8666666666666667 -1 0  0.9333333333333333 -1 0  1 -1 0  -1 -0.9333333333333333 0  -0.9333333333333333 -0.9333333333333333 0  -0.8666666666666667 -0.9333333333333333 0  -0.8 -0.9333333333333333 0  -0.7333333333333334 -0.9333333333333333 0  -0.6666666666666667 -0.9333333333333333 0  -0.6 -0.9333333333333333 0  -0.5333333333333333 -0.9333333333333333 0  -0.4666666666666667 -0.9333333333333333 0  -0.4 -0.9333333333333333 0  -0.3333333333333334 -0.9333333333333333 0  -0.2666666666666667 -0.9333333333333333 0  -0.2 -0.9333333333333333 0  -0.1333333333333333 -0.9333333333333333 0  -0.06666666666666665 -0.9333333333333333 0  0 -0.9333333333333333 0  0.06666666666666665 -0.9333333333333333 0  0.1333333333333333 -0.9333333333333333 0  0.2 -0.9333333333333333 0  0.2666666666666666 -0.9333333333333333 0  0.3333333333333333 -0.9333333333333333 0  0.3999999999999999 -0.9333333333333333 0  0.4666666666666666 -0.9333333333333333 0  0.5333333333333334 -0.9333333333333333 0  0.6000000000000001 -0.9333333333333333 0  0.6666666666666667 -0.9333333333333333 0  0.7333333333333334 -0.9333333333333333 0  0.8 -0.9333333333333333 0  0.8666666666666667 -0.9333333333333333 0  0.9333333333333333 -0.9333333333333333 0  1 -0.9333333333333333 0  -1 -0.8666666666666667 0  -0.9333333333333333 -0.8666666666666667 0  -0.8666666666666667 -0.8666666666666667 0  -0.8 -0.8666666666666667 0  -0.7333333333333334 -0.8666666666666667 0  -0.6666666666666667 -0.8666666666666667 0  -0.6 -0.8666666666666667 0  -0.5333333333333333 -0.8666666666666667 0  -0.4666666666666667 -0.8666666666666667 0  -0.4 -0.8666666666666667 0  -0.3333333333333334 -0.8666666666666667 0  -0.2666666666666667 -0.8666666666666667 0  -0.2 -0.8666666666666667 0  -0.1333333333333333 -0.8666666666666667 0  -0.06666666666666665 -0.8666666666666667 0  0 -0.8666666666666667 0  0.06666666666666665 -0.8666666666666667 0  0.1333333333333333 -0.8666666666666667 0  0.2 -0.8666666666666667 0  0.2666666666666666 -0.8666666666666667 0  0.3333333333333333 -0.8666666666666667 0  0.3999999999999999 -0.8666666666666667 0  0.4666666666666666 -0.8666666666666667 0  0.5333333333333334 -0.8666666666666667 0  0.6000000000000001 -0.8666666666666667 0  0.6666666666666667 -0.8666666666666667 0  0.7333333333333334 -0.8666666666666667 0  0.8 -0.8666666666666667 0  0.8666666666666667 -0.8666666666666667 0  0.9333333333333333 -0.8666666666666667 0  1 -0.8666666666666667 0  -1 -0.8 0  -0.9333333333333333 -0.8 0  -0.8666666666666667 -0.8 0  -0.8 -0.8 0  -0.7333333333333334 -0.8 0  -0.6666666666666667 -0.8 0  -0.6 -0.8 0  -0.5333333333333333 -0.8 0  -0.4666666666666667 -0.8 0  -0.4 -0.8 0  -0.3333333333333334 -0.8 0  -0.2666666666666667 -0.8 0  -0.2 -0.8 0  -0.1333333333333333 -0.8 0  -0.06666666666666665 -0.8 0  0 -0.8 0  0.06666666666666665 -0.8 0  0.1333333333333333 -0.8 0  0.2 -0.8 0  0.2666666666666666 -0.8 0  0.3333333333333333 -0.8 0  0.3999999999999999 -0.8 0  0.4666666666666666 -0.8 0  0.5333333333333334 -0.8 0  0.6000000000000001 -0.8 0  0.6666666666666667 -0.8 0  0.7333333333333334 -0.8 0  0.8 -0.8 0  0.8666666666666667 -0.8 0  0.9333333333333333 -0.8 0  1 -0.8 0  -1 -0.7333333333333334 0  -0.9333333333333333 -0.7333333333333334 0  -0.8666666666666667 -0.7333333333333334 0  -0.8 -0.7333333333333334 0  -0.7333333333333334 -0.7333333333333334 0  -0.6666666666666667 -0.7333333333333334 0  -0.6 -0.7333333333333334 0  -0.5333333333333333 -0.7333333333333334 0  -0.4666666666666667 -0.7333333333333334 0  -0.4 -0.7333333333333334 0  -0.3333333333333334 -0.7333333333333334 0  -0.2666666666666667 -0.7333333333333334 0  -0.2 -0.7333333333333334 0  -0.1333333333333333 -0.7333333333333334 0  -0.06666666666666665 -0.7333333333333334 0  0 -0.7333333333333334 0  0.06666666666666665 -0.7333333333333334 0  0.1333333333333333 -0.7333333333333334 0  0.2 -0.7333333333333334 0  0.2666666666666666 -0.7333333333333334 0  0.3333333333333333 -0.7333333333333334 0  0.3999999999999999 -0.7333333333333334 0  0.4666666666666666 -0.7333333333333334 0  0.5333333333333334 -0.7333333333333334 0  0.6000000000000001 -0.7333333333333334 0  0.6666666666666667 -0.7333333333333334 0  0.7333333333333334 -0.7333333333333334 0  0.8 -0.7333333333333334 0  0.8666666666666667 -0.7333333333333334 0  0.9333333333333333 -0.7333333333333334 0  1 -0.7333333333333334 0  -1 -0.6666666666666667 0  -0.9333333333333333 -0.6666666666666667 0  -0.8666666666666667 -0.6666666666666667 0  -0.8 -0.6666666666666667 0  -0.7333333333333334 -0.6666666666666667 0  -0.6666666666666667 -0.6666666666666667 0  -0.6 -0.6666666666666667 0  -0.5333333333333333 -0.6666666666666667 0  -0.4666666666666667 -0.6666666666666667 0  -0.4 -0.6666666666666667 0  -0.3333333333333334 -0.6666666666666667 0  -0.2666666666666667 -0.6666666666666667 0  -0.2 -0.6666666666666667 0  -0.1333333333333333 -0.6666666666666667 0  -0.06666666666666665 -0.6666666666666667 0  0 -0.6666666666666667 0  0.06666666666666665 -0.6666666666666667 0  0.1333333333333333 -0.6666666666666667 0  0.2 -0.6666666666666667 0  0.2666666666666666 -0.6666666666666667 0  0.3333333333333333 -0.6666666666666667 0  0.3999999999999999 -0.6666666666666667 0  0.4666666666666666 -0.6666666666666667 0  0.5333333333333334 -0.6666666666666667 0  0.6000000000000001 -0.6666666666666667 0  0.6666666666666667 -0.6666666666666667 0  0.7333333333333334 -0.6666666666666667 0  0.8 -0.6666666666666667 0  0.8666666666666667 -0.6666666666666667 0  0.9333333333333333 -0.6666666666666667 0  1 -0.6666666666666667 0  -1 -0.6 0  -0.9333333333333333 -0.6 0  -0.8666666666666667 -0.6 0  -0.8 -0.6 0  -0.7333333333333334 -0.6 0  -0.6666666666666667 -0.6 0  -0.6 -0.6 0  -0.5333333333333333 -0.6 0  -0.4666666666666667 -0.6 0  -0.4 -0.6 0  -0.3333333333333334 -0.6 0  -0.2666666666666667 -0.6 0  -0.2 -0.6 0  -0.1333333333333333 -0.6 0  -0.06666666666666665 -0.6 0  0 -0.6 0  0.06666666666666665 -0.6 0  0.1333333333333333 -0.6 0  0.2 -0.6 0  0.2666666666666666 -0.6 0  0.3333333333333333 -0.6 0  0.3999999999999999 -0.6 0  0.4666666666666666 -0.6 0  0.5333333333333334 -0.6 0  0.6000000000000001 -0.6 0  0.6666666666666667 -0.6 0  0.7333333333333334 -0.6 0  0.8 -0.6 0  0.8666666666666667 -0.6 0  0.9333333333333333 -0.6 0  1 -0.6 0  -1 -0.5333333333333333 0  -0.9333333333333333 -0.5333333333333333 0  -0.8666666666666667 -0.5333333333333333 0  -0.8 -0.5333333333333333 0  -0.7333333333333334 -0.5333333333333333 0  -0.6666666666666667 -0.5333333333333333 0  -0.6 -0.5333333333333333 0  -0.5333333333333333 -0.5333333333333333 0  -0.4666666666666667 -0.5333333333333333 0  -0.4 -0.5333333333333333 0  -0.3333333333333334 -0.5333333333333333 0  -0.2666666666666667 -0.5333333333333333 0  -0.2 -0.5333333333333333 0  -0.1333333333333333 -0.5333333333333333 0  -0.06666666666666665 -0.5333333333333333 0  0 -0.5333333333333333 0  0.06666666666666665 -0.5333333333333333 0  0.1333333333333333 -0.5333333333333333 0  0.2 -0.5333333333333333 0  0.2666666666666666 -0.5333333333333333 0  0.3333333333333333 -0.5333333333333333 0  0.3999999999999999 -0.5333333333333333 0  0.4666666666666666 -0.5333333333333333 0  0.5333333333333334 -0.5333333333333333 0  0.6000000000000001 -0.5333333333333333 0  0.6666666666666667 -0.5333333333333333 0  0.7333333333333334 -0.5333333333333333 0  0.8 -0.5333333333333333 0  0.8666666666666667 -0.5333333333333333 0  0.9333333333333333 -0.5333333333333333 0  1 -0.5333333333333333 0  -1 -0.4666666666666667 0  -0.9333333333333333 -0.4666666666666667 0  -0.8666666666666667 -0.4666666666666667 0  -0.8 -0.4666666666666667 0  -0.7333333333333334 -0.4666666666666667 0  -0.6666666666666667 -0.4666666666666667 0  -0.6 -0.4666666666666667 0  -0.5333333333333333 -0.4666666666666667 0  -0.4666666666666667 -0.4666666666666667 0  -0.4 -0.4666666666666667 0  -0.3333333333333334 -0.4666666666666667 0  -0.2666666666666667 -0.4666666666666667 0  -0.2 -0.4666666666666667 0  -0.1333333333333333 -0.4666666666666667 0  -0.06666666666666665 -0.4666666666666667 0  0 -0.4666666666666667 0  0.06666666666666665 -0.4666666666666667 0  0.1333333333333333 -0.4666666666666667 0  0.2 -0.4666666666666667 0  0.2666666666666666 -0.4666666666666667 0  0.3333333333333333 -0.4666666666666667 0  0.3999999999999999 -0.4666666666666667 0  0.4666666666666666 -0.4666666666666667 0  0.5333333333333334 -0.4666666666666667 0  0.6000000000000001 -0.4666666666666667 0  0.6666666666666667 -0.4666666666666667 0  0.7333333333333334 -0.4666666666666667 0  0.8 -0.4666666666666667 0  0.8666666666666667 -0.4666666666666667 0  0.9333333333333333 -0.4666666666666667 0  1 -0.4666666666666667 0  -1 -0.4 0  -0.9333333333333333 -0.4 0  -0.8666666666666667 -0.4 0  -0.8 -0.4 0  -0.7333333333333334 -0.4 0  -0.6666666666666667 -0.4 0  -0.6 -0.4 0  -0.5333333333333333 -0.4 0  -0.4666666666666667 -0.4 0  -0.4 -0.4 0  -0.3333333333333334 -0.4 0  -0.2666666666666667 -0.4 0  -0.2 -0.4 0  -0.1333333333333333 -0.4 0  -0.06666666666666665 -0.4 0  0 -0.4 0  0.06666666666666665 -0.4 0  0.1333333333333333 -0.4 0  0.2 -0.4 0  0.2666666666666666 -0.4 0  0.3333333333333333 -0.4 0  0.3999999999999999 -0.4 0  0.4666666666666666 -0.4 0  0.5333333333333334 -0.4 0  0.6000000000000001 -0.4 0  0.6666666666666667 -0.4 0  0.7333333333333334 -0.4 0 
[...]
<PointData  Scalars="f_24"> 
<DataArray  type="Float64"  Name="f_24"  format="ascii">0.0000000000000000e+00  0.0000000000000000e+00  0.0000000000000000e+00  0.0000000000000000e+00  0.0000000000000000e+00  0.0000000000000000e+00  0.0000000000000000e+00  0.0000000000000000e+00  0.0000000000000000e+00  0.0000000000000000e+00  0.0000000000000000e+00  0.0000000000000000e+00  0.0000000000000000e+00  0.0000000000000000e+00  0.0000000000000000e+00  0.0000000000000000e+00  0.0000000000000000e+00  0.0000000000000000e+00  0.0000000000000000e+00  0.0000000000000000e+00  0.0000000000000000e+00  0.0000000000000000e+00  0.0000000000000000e+00  0.0000000000000000e+00  0.0000000000000000e+00  -1.5122196750096653e-07  0.0000000000000000e+00  -1.7132473591703050e-07  0.0000000000000000e+00  0.0000000000000000e+00  1.3702642839737816e+01  0.0000000000000000e+00  1.2435774654129172e+07  1.3525562238234617e+07  1.9686544280369576e+07  1.4074782463873377e+07  1.9327957158373140e+07  1.0868120514385311e+07  1.8301428588273771e+07  7.5631468462726530e+06  1.7052677626881264e+07  5.2695387755162483e+06  1.6599941586118458e+07  2.9924433700535069e+06  1.7300019251891930e+07  1.2956189603120459e+06  1.8103733105525754e+07  7.0594134992035362e+05  1.9276454856456470e+07  6.5548724727112998e+05  2.1179350148612279e+07  1.4146132339332288e+06  2.4722591858020388e+07  7.4150035764344933e+05  3.6441560246552810e+07  -6.2614978687367635e+06  6.3948754112814799e+07  -1.9626121003775511e+07  1.0628464886690331e+08  -1.2047741336618286e+07  2.3155412542811674e+08  1.1964961642385928e+01  0.0000000000000000e+00  1.3525562216488769e+07  1.4768774638563098e+07  5.7086464356074361e+06  2.3087900946211694e+06  -4.4579423563247714e+06  -4.1203471561041325e+06  -9.2464091494166553e+06  -7.4638424929076508e+06  -1.0137564026365338e+07  -8.5539893591544610e+06  -1.1022441196161805e+07  -8.1036587077144152e+06  -1.1357414056051202e+07  -8.6236750729952492e+06  -1.0729395357124180e+07  -9.4307881772871800e+06  -1.0878740477928281e+07  -9.8562219151563123e+06  -1.1098021419838598e+07  -1.0680652447820451e+07  -1.2731190100031229e+07  -8.0479128444641689e+06  -2.1826942439123943e+07  -1.6005806229130591e+06  -3.5372351779226772e+07  2.9119446960898833e+06  -3.0578338855398990e+07  -1.8898181997462191e+07  -1.2047749961989801e+07  1.0398039059598382e+01  5.1009540406553513e-09  1.9686544270845521e+07  5.7086464393054545e+06  1.7919925432769379e+06  -5.1816488483431544e+06  1.1522619713882301e+06  -5.1642046660128748e+06  4.0246951275062137e+06  -2.3130819417969603e+06  7.3297961874720417e+06  -2.1994822308877218e+06  1.0830484285820192e+07  -2.4631208666601805e+06  1.2141359548803974e+07  -2.1286081356096473e+06  1.3303153937910391e+07  -3.3194582158163679e+06  1.5277064559353245e+07  -4.5339348608229514e+06  1.5776432772838514e+07  -5.7156348435697546e+06  1.8958870359127663e+07  -1.1959079125684682e+07  3.1437658916142914e+07  -2.0049537457292560e+07  4.8481848951124005e+07  -3.2370018919008221e+07  5.7985096347146571e+07  -3.0578338262105841e+07  1.0628465054261853e+08  8.9903039765228314e+00  0.0000000000000000e+00  1.4074782396398131e+07  2.3087901153828190e+06  -5.1816488546885829e+06  3.5636888824996533e+05  -4.9834609189439546e+06  4.9783898114250845e+05  -3.4599000363849304e+06  3.9184740353531444e+04  -5.5306140037931083e+06  1.7260913616060020e+05  -6.5533437354616346e+06  -1.5816619285374794e+06  -6.1751884996518521e+06  -2.5030276005352549e+06  -7.0790870191434594e+06  -2.2358925605090079e+06  -7.1712585765744960e+06  -3.7142135234271646e+06  -5.4923131912762839e+06  -3.8577702471094374e+06  -9.5234790541858003e+06  5.2530159157815785e+05  -2.2576464158052042e+07  3.5497323596406495e+06  -3.2703453573565338e+07  1.2542065656994004e+07  -3.2370027993527349e+07  2.9119508208058574e+06  -1.9626128224818699e+07  7.7305912522617639e+00  -1.0087333227360278e-08  1.9327957138949033e+07  -4.4579423167313524e+06  1.1522619782515476e+06  -4.9834609228836307e+06  1.4671315553200645e+06  -2.9935644379884452e+06  3.5313688970281179e+06  -4.4254903957255883e+06  6.6845058791102897e+06  -4.0568088156442498e+06  7.5503167018721206e+06  -3.2641845164471767e+06  9.4979900258731116e+06  -4.5891391641661357e+06  1.1985582837018890e+07  -5.4063696477722554e+06  1.2288674107683929e+07  -5.0072694725208376e+06  1.2850145158281205e+07  -8.5606867311530653e+06  2.1157420659645773e+07  -1.4655072387204284e+07  3.4485924656488910e+07  -2.1461342002900511e+07  4.0064935126680970e+07  -3.2703464535687722e+07  4.8481859276854627e+07  -3.5372352896584198e+07  6.3948753540614508e+07  6.6081418015710929e+00  0.0000000000000000e+00  1.0868120416277325e+07  -4.1203470967385503e+06  -5.1642047218365418e+06  4.9783899357675854e+05  -2.9935644430849124e+06  2.8579402988220514e+06  -4.5917513015564680e+06  3.9652549427855443e+06  -4.4373900175348166e+06  2.0838348852003543e+06  -4.5955027983516762e+06  1.9480932606211740e+06  -6.2369432150884867e+06  1.8444549290577506e+06  -6.3053506273722844e+06  2.4021544267766055e+05  -4.8505356494580535e+06  -1.0637484326145933e+06  -5.2659085119301733e+06  1.3989224724414011e+06  -1.2612796290984983e+07  2.8404438615778973e+06  -1.9150401248529542e+07  6.6005179150375370e+06  -2.1461368267125290e+07  3.5497526539925532e+06  -2.0049545186580662e+07  -1.6005814988966864e+06  -6.2615003260455839e+06  5.6126025071566108e+00  2.4952850836343768e-09  1.8301428577637896e+07  -9.2464090907623526e+06  4.0246951219407362e+06  -3.4599000139746652e+06  3.5313689019177407e+06  -4.5917513070178684e+06  4.6409381321722968e+06  -4.1816614175627152e+06  4.4346239848523177e+06  -4.3696297213177737e+06  6.9613803872835152e+06  -5.5714742321612965e+06  8.5234236649345513e+06  -5.3734654298451794e+06  9.2254245941567570e+06  -5.4449002627584338e+06  9.9363048412780128e+06  -6.4214005829064120e+06  1.2872789883058753e+07  -1.0211215338488307e+07  2.1635637562937833e+07  -1.3253770731044935e+07  2.6528266020671360e+07  -1.9150446871678624e+07  3.4485962259306066e+07  -2.2576471728707492e+07  3.1437652221655942e+07  -2.1826935192513820e+07  3.6441559079138428e+07  4.7340262653272465e+00  0.0000000000000000e+00  7.5631467166881962e+06  -7.4638424089022968e+06  -2.3130820335623277e+06  3.9184773557568456e+04  -4.4254904458972309e+06  3.9652549641794600e+06  -4.1816614265775578e+06  3.7917912065145033e+06  -4.5582659217164582e+06  5.0229480322778337e+06  -5.7189855502560455e+06  3.8939396183919786e+06  -5.4250853906990709e+06  3.1432975370352389e+06  -5.9945732939200513e+06  2.6616478970577819e+06  -5.1595043748829849e+06  1.6431160094629326e+06  -6.7190796263030758e+06  2.9560042363298149e+06  -1.2141721220536567e+07  4.1012720131183472e+06  -1.3253855760567486e+07  2.8405122311875662e+06  -1.4655087502923496e+07  5.2528549753574573e+05  -1.1959066858783497e+07  -8.0479142230587117e+06  7.4149537120626436e+05  3.9628719766242253e+00  -2.1626249052091782e-09  1.7052677627175082e+07  -1.0137563940571159e+07  7.3297961681945333e+06  -5.5306139718396105e+06  6.6845059014570676e+06  -4.4373900131750563e+06  4.4346239916810822e+06  -4.5582659264959497e+06  5.6884334804790020e+06  -5.6229953481412362e+06  5.4803852993265949e+06  -5.1972717339136899e+06  7.3695200663857246e+06  -6.5507123569162805e+06  8.7854220467287879e+06  -5.9882587596147675e+06  7.8416622633083584e+06  -6.0740745818531448e+06  1.2296496357552387e+07  -9.4551244700874835e+06  1.7627017390460733e+07  -1.2141866576792590e+07  2.1635756951146271e+07  -1.2612817257278020e+07  2.1157385723965671e+07  -9.5234481602599826e+06  1.8958865227124818e+07  -1.2731195056680528e+07  2.4722595126680139e+07  3.2900045514009277e+00  0.0000000000000000e+00  5.2695386202860493e+06  -8.5539892582062427e+06  -2.1994823804050107e+06  1.7260922083366849e+05  -4.0568089147088644e+06  2.0838349178641587e+06  -4.3696297659840984e+06  5.0229480577306617e+06  -5.6229953632255848e+06  4.7710895795435561e+06  -5.1147614942476004e+06  6.0275807805121010e+06  -6.9746722682719454e+06  5.2254168011275129e+06  -5.5850406610990325e+06  2.5934520484767631e+06  -3.8872432044711895e+06  3.1307189234973029e+06  -8.9222192288268805e+06  4.9822248872348806e+06  -9.4553661941892747e+06  2.9562043015597914e+06  -1.0211248661506059e+07  1.3988548903704342e+06  -8.5606293796641082e+06  -3.8577797992999060e+06  -5.7156505379342036e+06  -1.0680641693304857e+07  1.4146099537934950e+06  2.7066948819235206e+00  0.0000000000000000e+00  1.6599941601633206e+07  -1.1022441103616521e+07  1.0830484287163677e+07  -6.5533436938637914e+06  7.5503167123437487e+06  -4.5955027738004765e+06  6.9613804198647169e+06  -5.7189855648742802e+06  5.4803853163298462e+06  -5.1147615001312904e+06  6.7705473075643200e+06  -7.3308364997754088e+06  6.5110284287875788e+06  -5.2077397510982975e+06  6.1579443537372630e+06  -4.8454617156636929e+06  7.1464321358220400e+06  -7.7104864086383069e+06  1.2860316018873634e+07  -8.9225947085104771e+06  1.2296814090404177e+07  -6.7191254968574001e+06  1.2872667070504328e+07  -5.2658020218312498e+06  1.2850127498726035e+07  -5.4923417247484075e+06  1.5776454570051160e+07  -1.1098022640481820e+07  2.1179346463536516e+07  2.2046198981697183e+00  0.0000000000000000e+00  2.9924431689492273e+06  -8.1036585665227734e+06  -2.4631210816194694e+06  -1.5816618197097674e+06  -3.2641846548502096e+06  1.9480933387463237e+06  -5.5714743488238528e+06  3.8939396704810150e+06  -5.1972717848185794e+06  6.0275808132431693e+06  -7.3308365268700076e+06  5.7817140532577466e+06  -4.5523558680152139e+06  5.1117210118931327e+06  -6.0942575618859362e+06  4.3718707523810910e+06  -5.7096951165339341e+06  5.2963694111016933e+06  -7.7110330135327885e+06  3.1311926641185116e+06  -6.0741366037745634e+06  1.6429084364162926e+06  -6.4212214526904533e+06  -1.0637764740367178e+06  -5.0073261115533737e+06  -3.7141703353076545e+06  -4.5339397432400603e+06  -9.8562319934107512e+06  6.5549024941221240e+05  1.7758625120300209e+00  -2.0973078772976968e-06  1.7300019302006818e+07  -1.1357413960040685e+07  1.2141359553955693e+07  -6.1751884263342144e+06  9.4979900496612154e+06  -6.2369432085905410e+06  8.5234237215847615e+06  -5.4250853925868850e+06  7.3695201176545396e+06  -6.9746723131535854e+06  6.5110284721977245e+06  -4.5523558777955500e+06  5.8270597515592035e+06  -7.6490600474334396e+06  6.5971857243792247e+06  -3.9616757520048679e+06  5.6178702132714307e+06  -5.7104270338450270e+06  7.1470876590099894e+06  -3.8873186350173196e+06  7.8413365163323823e+06  -5.1592198623859817e+06  9.9362639898519535e+06  -4.8506350213024812e+06  1.2288751628057342e+07  -7.1712640191565938e+06  1.5277040913820589e+07  -1.0878727023640772e+07  1.9276455234708898e+07  1.4129116452070889e+00  0.0000000000000000e+00  1.2956186917343382e+06  -8.6236749015664645e+06  -2.1286084037070251e+06  -2.5030274527385249e+06  -4.5891393960556872e+06  1.8444550747769927e+06  -5.3734656081631780e+06  3.1432976367784184e+06  -6.5507125092708692e+06  5.2254168979770634e+06  -5.2077398249073615e+06  5.1117210503483787e+06  -7.6490600969244977e+06  6.5705006715723788e+06  -2.4024678264337452e+06  7.3932167576194147e+05  -3.9625716573500615e+06  4.3727044645429570e+06  -4.8455482220519437e+06  2.5929829578981427e+06  -5.9878439329196084e+06  2.6615952238749717e+06  -5.4450673194999574e+06  2.4034597355016458e+05  -5.4063789499766920e+06  -2.2359376183904349e+06  -3.3194328663810259e+06  -9.4307857199899256e+06  7.0593337832108105e+05  1.1086622236358734e+00  -7.4976577064942699e-09  1.8103733190186881e+07  -1.0729395231064634e+07  1.3303153957269298e+07  -7.0790869572392143e+06  1.1985582917351017e+07  -6.3053506303971736e+06  9.2254246780679785e+06  -5.9945733343388177e+06  8.7854221742251776e+06  -5.5850407251036912e+06  6.1579444481491409e+06  -6.0942576703319037e+06  6.5971858666598285e+06  -2.4024678864300963e+06  -2.4597799552993977e+05  -2.4034606712796655e+06  6.5981522399926791e+06  -6.0943495509240199e+06  6.1573300504560526e+06  -5.5844840320537463e+06  8.7853610151391290e+06  -5.9948289420111794e+06  9.2256264334365260e+06  -6.3053601608905140e+06  1.1985502819740985e+07  -7.0790385948559027e+06  1.3303158596102336e+07  -1.0729412630294262e+07  1.8103739022074409e+07  8.5641517748361351e-01  0.0000000000000000e+00  7.0594099495672446e+05  -9.4307879601467848e+06  -3.3194586003060527e+06  -2.2358923151691142e+06  -5.4063699991958197e+06  2.4021565459336978e+05  -5.4449005553660449e+06  2.6616481178857335e+06  -5.9882590458851019e+06  2.5934522370618843e+06  -4.8454619603579417e+06  4.3718709727777978e+06  -3.9616759255386149e+06  7.3932167573084531e+05  -2.4034606112857107e+06  6.5715165403944617e+06  -7.6491542923141001e+06  5.1109959886127543e+06  -5.2070606583464798e+06  5.2253528616936328e+06  -6.5510704488454591e+06  3.1435836730459062e+06  -5.3734736681386735e+06  1.8443255807306350e+06  -4.5890605589535153e+06  -2.5030176256134785e+06  -2.1286443801205773e+06  -8.6236604392504096e+06  1.2956206743927367e+06  6.4987744114983703e-01  7.7033590955826834e-09  1.9276454989788104e+07  -1.0878740340944681e+07  1.5277064652854260e+07  -7.1712585480683614e+06  1.2288674246417847e+07  -4.8505356821171641e+06  9.9363050307579506e+06  -5.1595045027804142e+06  7.8416624762698533e+06  -3.8872433222473846e+06  7.1464323331577117e+06  -5.7096952178843236e+06  5.6178702131679161e+06  -3.9625714836928961e+06  6.5981520977328224e+06  -7.6491542428087136e+06  5.8262929916690541e+06  -4.5516044059316264e+06  6.5109652131624203e+06  -6.9751225102811716e+06  7.3698885244338950e+06  -5.4250865159880016e+06  8.5232322652589735e+06  -6.2368240581531869e+06  9.4980078544200771e+06  -6.1752492614923185e+06  1.2141385204094075e+07  -1.1357405349495484e+07  1.7300009748071741e+07  4.8316195967632258e-01  0.0000000000000000e+00  6.5548673346114752e+05  -9.8562215799821783e+06  -4.5339354355347035e+06  -3.7142131702936967e+06  -5.0072699636867289e+06  -1.0637481074416118e+06  -6.4214010394015266e+06  1.6431163078894538e+06  -6.0740749107158501e+06  3.1307190888126083e+06  -7.7104866057755928e+06  5.2963694110410046e+06  -5.7104269323226344e+06  4.3727042440147586e+06  -6.0943494425640376e+06  5.1109959501360105e+06  -4.5516043961683176e+06  5.7816516934320237e+06  -7.3313427887189863e+06  6.0280103230919838e+06  -5.1972642224835502e+06  3.8936844492574339e+06  -5.5713130114573585e+06  1.9481233724771128e+06  -3.2642801826601173e+06  -1.5816206843334148e+06  -2.4631048358622533e+06  -8.1036813061981816e+06  2.9924477461415473e+06  3.5078765669728817e-01  -8.2298557378547960e-09  2.1179350375625208e+07  -1.1098021269363310e+07  1.5776432930634428e+07  -5.4923131426225258e+06  1.2850145342680033e+07  -5.2659085494550979e+06  1.2872790087832654e+07  -6.7190796411883766e+06  1.2296496441491421e+07  -8.9222191616059020e+06  1.2860316018736109e+07  -7.7110328163422300e+06  7.1470874615932740e+06  -4.8455479771861397e+06  6.1573299561873712e+06  -5.2070605844628084e+06  6.5109651697839778e+06  -7.3313427616126183e+06  6.7709994486221839e+06  -5.1147471486942004e+06  5.4800808442697152e+06  -5.7187872437861403e+06  6.9614247050616182e+06  -4.5956362215331094e+06  7.5503750267592510e+06  -6.5533147447295990e+06  1.0830443201622272e+07  -1.1022430113826256e+07  1.6599947834718667e+07  2.4767949853901411e-01  0.0000000000000000e+00  1.4146124688667038e+06  -1.0680651988535054e+07  -5.7156355904150633e+06  -3.8577698540647090e+06  -8.5606873112068232e+06  1.3989227756144388e+06  -1.0211215738233145e+07  2.9560043466231120e+06  -9.4551246549550574e+06  4.9822248867153414e+06  -8.9225947751295026e+06  3.1311924987834310e+06  -3.8873185173289352e+06  2.5929827690465827e+06  -5.5844839682993731e+06  5.2253527646844238e+06  -6.9751224654838704e+06  6.0280102903251667e+06  -5.1147471428199634e+06  4.7707664768387247e+06  -5.6227758936306993e+06  5.0230045616090978e+06  -4.3697981962601067e+06  2.0839098112292828e+06  -4.0567663246618207e+06  1.7254716766319808e+05  -2.1994666944213980e+06  -8.5539733432128914e+06  5.2695269109013183e+06  1.6916843012022006e-01  0.0000000000000000e+00  2.4722592141001165e+07  -1.2731189782980820e+07  1.8958870485288884e+07  -9.5234788876474965e+06  2.1157420825917151e+07  -1.2612796195645776e+07  2.1635637649917856e+07  -1.2141721047447747e+07  1.7627017390186232e+07  -9.4553660083603598e+06  1.2296814005605778e+07  -6.0741362748543564e+06  7.8413363036981011e+06  -5.9878436461754013e+06  8.7853608880703710e+06  -6.5510702961666705e+06  7.3698884733550334e+06  -5.1972641714774631e+06  5.4800808273075605e+06  -5.6227758785417108e+06  5.6884948266637241e+06  -4.5584550077037169e+06  4.4347106459322665e+06  -4.4373335613098396e+06  6.6844224769709138e+06  -5.5305923344565649e+06  7.3298230647575259e+06  -1.0137587082984826e+07  1.7052680354748286e+07  1.1099132967334757e-01  0.0000000000000000e+00  7.4149929660356289e+05  -8.0479123038188005e+06  -1.1959080050879106e+07  5.2530197376711667e+05  -1.4655073014260603e+07  2.8404440475040730e+06  -1.3253771069820615e+07  4.1012720121474736e+06  -1.2141866749483066e+07  2.9562041908651465e+06  -6.7191254810144976e+06  1.6429081377368330e+06  -5.1592197351753730e+06  2.6615950021959348e+06  -5.9948289023470674e+06  3.1435835727076139e+06  -5.4250865145026464e+06  3.8936843969382294e+06  -5.7187872292860420e+06  5.0230045361146070e+06  -4.5584550029287320e+06  3.7918821467691963e+06  -4.1815967539700270e+06  3.9651556021831911e+06  -4.4254651938207550e+06  3.9223627473750872e+04  -2.3131186691716700e+06  -7.4638380059769554e+06  7.5631548989267321e+06  6.9291388977242144e-02  2.2058050483544975e-08  3.6441560451619260e+07  -2.1826941828603450e+07  3.1437659084224857e+07  -2.2576463905643538e+07  3.4485924841711745e+07  -1.9150400980260845e+07  2.6528266018520851e+07  -1.3253855417720461e+07  2.1635756863123555e+07  -1.0211248262175342e+07  1.2872666864880603e+07  -6.4212209954795931e+06  9.9362638017032053e+06  -5.4450670253593642e+06  9.2256263509104289e+06  -5.3734734887164030e+06  8.5232322094104476e+06  -5.5713128942880863e+06  6.9614246727637127e+06  -4.3697981514561698e+06  4.4347106391472649e+06  -4.1815967449509935e+06  4.6408327796756737e+06  -4.5917237123611784e+06  3.5314167285893629e+06  -3.4599468397139153e+06  4.0246992861966500e+06  -9.2463902277520113e+06  1.8301418618066229e+07  4.0617340071864780e-02  0.0000000000000000e+00  -6.2614994424786465e+06  -1.6005798271319421e+06  -2.0049538698138963e+07  3.5497326876535630e+06  -2.1461342669318050e+07  6.6005179161626948e+06  -1.9150447140557162e+07  2.8405120404058984e+06  -1.2612817349890796e+07  1.3988545885591619e+06  -5.2658019839134812e+06  -1.0637768009152007e+06  -4.8506349912567241e+06  2.4034575879383157e+05  -6.3053601604608083e+06  1.8443254329021454e+06  -6.2368240662271911e+06  1.9481232932799864e+06  -4.5956362467367249e+06  2.0839097782149359e+06  -4.4373335658296142e+06  3.9651555807416327e+06  -4.5917237069043182e+06  2.8579915708916858e+06  -2.9936177129799533e+06  4.9784303680894978e+05  -5.1641781972453939e+06  -4.1203643851517234e+06  1.0868119371753361e+07  2.1924228543580487e-02  0.0000000000000000e+00  6.3948754119661823e+07  -3.5372350825087778e+07  4.8481849251469195e+07  -3.2703453023975838e+07  4.0064935114663206e+07  -2.1461367582675308e+07  3.4485962080362216e+07  -1.4655086874799812e+07  2.1157385551445909e+07  -8.5606288019654695e+06  1.2850127315259853e+07  -5.0073256163262054e+06  1.2288751494727302e+07  -5.4063785929385042e+06  1.1985502744491996e+07  -4.5890603228799505e+06  9.4980078338190746e+06  -3.2642800420120000e+06  7.5503750177458562e+06  -4.0567662247416722e+06  6.6844224550660728e+06  -4.4254651434585825e+06  3.5314167237531976e+06  -2.9936177078779852e+06  1.4671354307105008e+06  -4.9834292029706575e+06  1.1522390723864052e+06  -4.4579437502765087e+06  1.9327965519978650e+07  1.0573026882513737e-02  0.0000000000000000e+00  -1.9626123706021439e+07  2.9119457789197932e+06  -3.2370020258046959e+07  1.2542065640284255e+07  -3.2703465146547310e+07  3.5497522898530550e+06  -2.2576471973