<?xml version="1.0"?>
<VTKFile type="UnstructuredGrid"  version="0.1"  >
<UnstructuredGrid>
<Piece  NumberOfPoints="961" NumberOfCells="1800">
<Points>
<DataArray  type="Float64"  NumberOfComponents="3"  format="ascii">-1 -1 0  -0.9333333333333333 -1 0  -0.8666666666666667 -1 0  -0.8 -1 0  -0.7333333333333334 -1 0  -0.6666666666666667 -1 0  -0.6 -1 0  -0.5333333333333333 -1 0  -0.4666666666666667 -1 0  -0.4 -1 0  -0.3333333333333334 -1 0  -0.2666666666666667 -1 0  -0.2 -1 0  -0.1333333333333333 -1 0  -0.06666666666666665 -1 0  0 -1 0  0.06666666666666665 -1 0  0.1333333333333333 -1 0  0.2 -1 0  0.2666666666666666 -1 0  0.3333333333333333 -1 0  0.3999999999999999 -1 0  0.4666666666666666 -1 0  0.5333333333333334 -1 0  0.6000000000000001 -1 0  0.6666666666666667 -1 0  0.7333333333333334 -1 0  0.8 -1 0  0.8666666666666667 -1 0  0.9333333333333333 -1 0  1 -1 0  -1 -0.9333333333333333 0  -0.9333333333333333 -0.9333333333333333 0  -0.8666666666666667 -0.9333333333333333 0  -0.8 -0.9333333333333333 0  -0.7333333333333334 -0.9333333333333333 0  -0.6666666666666667 -0.9333333333333333 0  -0.6 -0.9333333333333333 0  -0.5333333333333333 -0.9333333333333333 0  -0.4666666666666667 -0.9333333333333333 0  -0.4 -0.9333333333333333 0  -0.3333333333333334 -0.9333333333333333 0  -0.2666666666666667 -0.9333333333333333 0  -0.2 -0.9333333333333333 0  -0.1333333333333333 -0.9333333333333333 0  -0.06666666666666665 -0.9333333333333333 0  0 -0.9333333333333333 0  0.06666666666666665 -0.9333333333333333 0  0.1333333333333333 -0.9333333333333333 0  0.2 -0.9333333333333333 0  0.2666666666666666 -0.9333333333333333 0  0.3333333333333333 -0.9333333333333333 0  0.3999999999999999 -0.9333333333333333 0  0.4666666666666666 -0.9333333333333333 0  0.5333333333333334 -0.9333333333333333 0  0.6000000000000001 -0.9333333333333333 0  0.6666666666666667 -0.9333333333333333 0  0.7333333333333334 -0.9333333333333333 0  0.8 -0.9333333333333333 0  0.8666666666666667 -0.9333333333333333 0  0.9333333333333333 -0.9333333333333333 0  1 -0.9333333333333333 0  -1 -0.8666666666666667 0  -0.9333333333333333 -0.8666666666666667 0  -0.8666666666666667 -0.8666666666666667 0  -0.8 -0.8666666666666667 0  -0.7333333333333334 -0.8666666666666667 0  -0.6666666666666667 -0.8666666666666667 0  -0.6 -0.8666666666666667 0  -0.5333333333333333 -0.8666666666666667 0  -0.4666666666666667 -0.8666666666666667 0  -0.4 -0.8666666666666667 0  -0.3333333333333334 -0.8666666666666667 0  -0.2666666666666667 -0.8666666666666667 0  -0.2 -0.8666666666666667 0  -0.1333333333333333 -0.8666666666666667 0  -0.06666666666666665 -0.8666666666666667 0  0 -0.8666666666666667 0  0.06666666666666665 -0.8666666666666667 0  0.1333333333333333 -0.8666666666666667 0  0.2 -0.8666666666666667 0  0.2666666666666666 -0.8666666666666667 0  0.3333333333333333 -0.8666666666666667 0  0.3999999999999999 -0.8666666666666667 0  0.4666666666666666 -0.8666666666666667 0  0.5333333333333334 -0.8666666666666667 0  0.6000000000000001 -0.8666666666666667 0  0.6666666666666667 -0.8666666666666667 0  0.7333333333333334 -0.8666666666666667 0  0.8 -0.8666666666666667 0  0.8666666666666667 -0.8666666666666667 0  0.9333333333333333 -0.8666666666666667 0  1 -0.8666666666666667 0  -1 -0.8 0  -0.9333333333333333 -0.8 0  -0.8666666666666667 -0.8 0  -0.8 -0.8 0  -0.7333333333333334 -0.8 0  -0.6666666666666667 -0.8 0  -0.6 -0.8 0  -0.5333333333333333 -0.8 0  -0.4666666666666667 -0.8 0  -0.4 -0.8 0  -0.3333333333333334 -0.8 0  -0.2666666666666667 -0.8 0  -0.2 -0.8 0  -0.1333333333333333 -0.8 0  -0.06666666666666665 -0.8 0  0 -0.8 0  0.06666666666666665 -0.8 0  0.1333333333333333 -0.8 0  0.2 -0.8 0  0.2666666666666666 -0.8 0  0.3333333333333333 -0.8 0  0.3999999999999999 -0.8 0  0.4666666666666666 -0.8 0  0.5333333333333334 -0.8 0  0.6000000000000001 -0.8 0  0.6666666666666667 -0.8 0  0.7333333333333334 -0.8 0  0.8 -0.8 0  0.8666666666666667 -0.8 0  0.9333333333333333 -0.8 0  1 -0.8 0  -1 -0.7333333333333334 0  -0.9333333333333333 -0.7333333333333334 0  -0.8666666666666667 -0.7333333333333334 0  -0.8 -0.7333333333333334 0  -0.7333333333333334 -0.7333333333333334 0  -0.6666666666666667 -0.7333333333333334 0  -0.6 -0.7333333333333334 0  -0.5333333333333333 -0.7333333333333334 0  -0.4666666666666667 -0.7333333333333334 0  -0.4 -0.7333333333333334 0  -0.3333333333333334 -0.7333333333333334 0  -0.2666666666666667 -0.7333333333333334 0  -0.2 -0.7333333333333334 0  -0.1333333333333333 -0.7333333333333334 0  -0.06666666666666665 -0.7333333333333334 0  0 -0.7333333333333334 0  0.06666666666666665 -0.7333333333333334 0  0.1333333333333333 -0.7333333333333334 0  0.2 -0.7333333333333334 0  0.2666666666666666 -0.7333333333333334 0  0.3333333333333333 -0.7333333333333334 0  0.3999999999999999 -0.7333333333333334 0  0.4666666666666666 -0.7333333333333334 0  0.5333333333333334 -0.7333333333333334 0  0.6000000000000001 -0.7333333333333334 0  0.6666666666666667 -0.7333333333333334 0  0.7333333333333334 -0.7333333333333334 0  0.8 -0.7333333333333334 0  0.8666666666666667 -0.7333333333333334 0  0.9333333333333333 -0.7333333333333334 0  1 -0.7333333333333334 0  -1 -0.6666666666666667 0  -0.9333333333333333 -0.6666666666666667 0  -0.8666666666666667 -0.6666666666666667 0  -0.8 -0.6666666666666667 0  -0.7333333333333334 -0.6666666666666667 0  -0.6666666666666667 -0.6666666666666667 0  -0.6 -0.6666666666666667 0  -0.5333333333333333 -0.6666666666666667 0  -0.4666666666666667 -0.6666666666666667 0  -0.4 -0.6666666666666667 0  -0.3333333333333334 -0.6666666666666667 0  -0.2666666666666667 -0.6666666666666667 0  -0.2 -0.6666666666666667 0  -0.1333333333333333 -0.6666666666666667 0  -0.06666666666666665 -0.6666666666666667 0  0 -0.6666666666666667 0  0.06666666666666665 -0.6666666666666667 0  0.1333333333333333 -0.6666666666666667 0  0.2 -0.6666666666666667 0  0.2666666666666666 -0.6666666666666667 0  0.3333333333333333 -0.6666666666666667 0  0.3999999999999999 -0.6666666666666667 0  0.4666666666666666 -0.6666666666666667 0  0.5333333333333334 -0.6666666666666667 0  0.6000000000000001 -0.6666666666666667 0  0.6666666666666667 -0.6666666666666667 0  0.7333333333333334 -0.6666666666666667 0  0.8 -0.6666666666666667 0  0.8666666666666667 -0.6666666666666667 0  0.9333333333333333 -0.6666666666666667 0  1 -0.6666666666666667 0  -1 -0.6 0  -0.9333333333333333 -0.6 0  -0.8666666666666667 -0.6 0  -0.8 -0.6 0  -0.7333333333333334 -0.6 0  -0.6666666666666667 -0.6 0  -0.6 -0.6 0  -0.5333333333333333 -0.6 0  -0.4666666666666667 -0.6 0  -0.4 -0.6 0  -0.3333333333333334 -0.6 0  -0.2666666666666667 -0.6 0  -0.2 -0.6 0  -0.1333333333333333 -0.6 0  -0.06666666666666665 -0.6 0  0 -0.6 0  0.06666666666666665 -0.6 0  0.1333333333333333 -0.6 0  0.2 -0.6 0  0.2666666666666666 -0.6 0  0.3333333333333333 -0.6 0  0.3999999999999999 -0.6 0  0.4666666666666666 -0.6 0  0.5333333333333334 -0.6 0  0.6000000000000001 -0.6 0  0.6666666666666667 -0.6 0  0.7333333333333334 -0.6 0  0.8 -0.6 0  0.8666666666666667 -0.6 0  0.9333333333333333 -0.6 0  1 -0.6 0  -1 -0.5333333333333333 0  -0.9333333333333333 -0.5333333333333333 0  -0.8666666666666667 -0.5333333333333333 0  -0.8 -0.5333333333333333 0  -0.7333333333333334 -0.5333333333333333 0  -0.6666666666666667 -0.5333333333333333 0  -0.6 -0.5333333333333333 0  -0.5333333333333333 -0.5333333333333333 0  -0.4666666666666667 -0.5333333333333333 0  -0.4 -0.5333333333333333 0  -0.3333333333333334 -0.5333333333333333 0  -0.2666666666666667 -0.5333333333333333 0  -0.2 -0.5333333333333333 0  -0.1333333333333333 -0.5333333333333333 0  -0.06666666666666665 -0.5333333333333333 0  0 -0.5333333333333333 0  0.06666666666666665 -0.5333333333333333 0  0.1333333333333333 -0.5333333333333333 0  0.2 -0.5333333333333333 0  0.2666666666666666 -0.5333333333333333 0  0.3333333333333333 -0.5333333333333333 0  0.3999999999999999 -0.5333333333333333 0  0.4666666666666666 -0.5333333333333333 0  0.5333333333333334 -0.5333333333333333 0  0.6000000000000001 -0.5333333333333333 0  0.6666666666666667 -0.5333333333333333 0  0.7333333333333334 -0.5333333333333333 0  0.8 -0.5333333333333333 0  0.8666666666666667 -0.5333333333333333 0  0.9333333333333333 -0.5333333333333333 0  1 -0.5333333333333333 0  -1 -0.4666666666666667 0  -0.9333333333333333 -0.4666666666666667 0  -0.8666666666666667 -0.4666666666666667 0  -0.8 -0.4666666666666667 0  -0.7333333333333334 -0.4666666666666667 0  -0.6666666666666667 -0.4666666666666667 0  -0.6 -0.4666666666666667 0  -0.5333333333333333 -0.4666666666666667 0  -0.4666666666666667 -0.4666666666666667 0  -0.4 -0.4666666666666667 0  -0.3333333333333334 -0.4666666666666667 0  -0.2666666666666667 -0.4666666666666667 0  -0.2 -0.4666666666666667 0  -0.1333333333333333 -0.4666666666666667 0  -0.06666666666666665 -0.4666666666666667 0  0 -0.4666666666666667 0  0.06666666666666665 -0.4666666666666667 0  0.1333333333333333 -0.4666666666666667 0  0.2 -0.4666666666666667 0  0.2666666666666666 -0.4666666666666667 0  0.3333333333333333 -0.4666666666666667 0  0.3999999999999999 -0.4666666666666667 0  0.4666666666666666 -0.4666666666666667 0  0.5333333333333334 -0.4666666666666667 0  0.6000000000000001 -0.4666666666666667 0  0.6666666666666667 -0.4666666666666667 0  0.7333333333333334 -0.4666666666666667 0  0.8 -0.4666666666666667 0  0.8666666666666667 -0.4666666666666667 0  0.9333333333333333 -0.4666666666666667 0  1 -0.4666666666666667 0  -1 -0.4 0  -0.9333333333333333 -0.4 0  -0.8666666666666667 -0.4 0  -0.8 -0.4 0  -0.7333333333333334 -0.4 0  -0.6666666666666667 -0.4 0  -0.6 -0.4 0  -0.5333333333333333 -0.4 0  -0.4666666666666667 -0.4 0  -0.4 -0.4 0  -0.3333333333333334 -0.4 0  -0.2666666666666667 -0.4 0  -0.2 -0.4 0  -0.1333333333333333 -0.4 0  -0.06666666666666665 -0.4 0  0 -0.4 0  0.06666666666666665 -0.4 0  0.1333333333333333 -0.4 0  0.2 -0.4 0  0.2666666666666666 -0.4 0  0.3333333333333333 -0.4 0  0.3999999999999999 -0.4 0  0.4666666666666666 -0.4 0  0.5333333333333334 -0.4 0  0.6000000000000001 -0.4 0  0.6666666666666667 -0.4 0  0.7333333333333334 -0.4 0 
[...]
<PointData  Scalars="f_24"> 
<DataArray  type="Float64"  Name="f_24"  format="ascii">0.0000000000000000e+00  0.0000000000000000e+00  0.0000000000000000e+00  0.0000000000000000e+00  0.0000000000000000e+00  0.0000000000000000e+00  0.0000000000000000e+00  0.0000000000000000e+00  0.0000000000000000e+00  0.0000000000000000e+00  0.0000000000000000e+00  0.0000000000000000e+00  0.0000000000000000e+00  0.0000000000000000e+00  0.0000000000000000e+00  0.0000000000000000e+00  0.0000000000000000e+00  0.0000000000000000e+00  0.0000000000000000e+00  0.0000000000000000e+00  0.0000000000000000e+00  0.0000000000000000e+00  0.0000000000000000e+00  0.0000000000000000e+00  0.0000000000000000e+00  -4.2403425876678755e-08  0.0000000000000000e+00  -2.6922458501247651e-07  0.0000000000000000e+00  0.0000000000000000e+00  9.9005342688982623e+00  0.0000000000000000e+00  9.0616753922900781e+06  9.9204359739864357e+06  1.4435920937309919e+07  1.0437764324618872e+07  1.4281227347319193e+07  8.2089114491193052e+06  1.3612123201909047e+07  5.8792711466418384e+06  1.2755716569396589e+07  4.2571519603546420e+06  1.2454847588502383e+07  2.6307081306392360e+06  1.2973638160117583e+07  1.4125857170648719e+06  1.3558057086222529e+07  9.8618657957011601e+05  1.4401137589627827e+07  9.4108288646454085e+05  1.5762406568970526e+07  1.4699195190060288e+06  1.8295672074213721e+07  9.4804224934992043e+05  2.6717401280777674e+07  -4.1693858737033382e+06  4.6521569113370590e+07  -1.3911336471150780e+07  7.7009308384680226e+07  -8.5534796801417638e+06  1.6738607391671279e+08  8.6450120719020145e+00  0.0000000000000000e+00  9.9204359583739303e+06  1.0942158813212592e+07  4.4869221663553817e+06  2.0863717022610358e+06  -2.7784232721049087e+06  -2.5353892858486911e+06  -6.2582874609919665e+06  -5.0006187833509240e+06  -6.9682370587342680e+06  -5.8603583174188836e+06  -7.6775524998859661e+06  -5.5968312893446758e+06  -7.9693028586832946e+06  -6.0074705852590632e+06  -7.5340714852535063e+06  -6.5921405059867250e+06  -7.6264111990960762e+06  -6.8677402283730973e+06  -7.7383845835057786e+06  -7.4050627602179423e+06  -8.8521958938328773e+06  -5.4344986411736216e+06  -1.5361567223130882e+07  -7.2882853952278849e+05  -2.5128401122210439e+07  2.5117563981026802e+06  -2.1737048612433605e+07  -1.3383382678439831e+07  -8.5534859123263527e+06  7.5128676423745198e+00  6.2344993830232066e-09  1.4435920930634841e+07  4.4869221691181948e+06  1.7275289842743573e+06  -3.3153630122405346e+06  1.2016386415221775e+06  -3.4535011507171253e+06  3.0820763002981953e+06  -1.5985496880618876e+06  5.2779031019971156e+06  -1.6832060075218144e+06  7.6714582064531362e+06  -1.9781932455898919e+06  8.5437710400721412e+06  -1.7843732065946853e+06  9.3601869047011472e+06  -2.6444073557230211e+06  1.0810275833308935e+07  -3.4736148748246883e+06  1.1245927822374381e+07  -4.2239460675740633e+06  1.3678986037801601e+07  -8.5725435109024867e+06  2.2881364381240625e+07  -1.4221213899889844e+07  3.5383181294492677e+07  -2.2977464008000080e+07  4.2315562607721552e+07  -2.1737048183834858e+07  7.7009309595244884e+07  6.4957405659500838e+00  0.0000000000000000e+00  1.0437764276171453e+07  2.0863717174243059e+06  -3.3153630167554594e+06  5.8712415700148349e+05  -3.4259152749886019e+06  3.6947054888056283e+05  -2.6362125801646430e+06  -2.2219151829492280e+05  -4.3278828529218109e+06  -2.5988997393717308e+05  -5.1514049704321502e+06  -1.5760883773709084e+06  -4.9032929806451285e+06  -2.2527879047575486e+06  -5.5594809591433862e+06  -2.0580599800894237e+06  -5.6196275110882428e+06  -3.1121717647138895e+06  -4.3787516271515880e+06  -3.1652227914211354e+06  -7.2057576370132649e+06  1.3544784363867997e+05  -1.6444622403698385e+07  2.5736653880778220e+06  -2.3462692132492799e+07  9.3765116762217321e+06  -2.2977470564679913e+07  2.5117608232111526e+06  -1.3911341688851785e+07  5.5855636395852502e+00  -4.9364260375076269e-09  1.4281227333666820e+07  -2.7784232433024910e+06  1.2016386465636976e+06  -3.4259152778389296e+06  1.0154703862692015e+06  -2.3903932514166110e+06  2.2010122673856048e+06  -3.6142587500807932e+06  4.3890452153534070e+06  -3.3699859839003044e+06  5.0311879429049743e+06  -2.7645588349234182e+06  6.4726155193724018e+06  -3.6951474640712924e+06  8.2848728432434564e+06  -4.2845208156333817e+06  8.4913821448322628e+06  -4.0202682096077842e+06  8.8659619828900639e+06  -6.6174342651989134e+06  1.4854648964304037e+07  -1.0996613955377281e+07  2.4576188470834628e+07  -1.5727067850199685e+07  2.8905472071328782e+07  -2.3462700052919008e+07  3.5383188755035385e+07  -2.5128401929736633e+07  4.6521568699602559e+07  4.7745632083807212e+00  0.0000000000000000e+00  8.2089113786690934e+06  -2.5353892427640720e+06  -3.4535011909890198e+06  3.6947055783590436e+05  -2.3903932551096627e+06  1.6891739935355096e+06  -3.7531386937600509e+06  2.4313439030143926e+06  -3.6064542404826600e+06  1.1495152237647129e+06  -3.6347007301844824e+06  1.1277748529349624e+06  -4.7619254153276691e+06  1.0919351222096260e+06  -4.7920622570843669e+06  -6.7216086033669999e+04  -3.7600290908636916e+06  -1.0477227011294392e+06  -4.1172376221244675e+06  6.5842640515034797e+05  -9.5073422711083684e+06  1.6271025676648964e+06  -1.4262417550726062e+07  4.4033489713521283e+06  -1.5727086826811124e+07  2.5736800513246991e+06  -1.4221219484594291e+07  -7.2882917267453752e+05  -4.1693876495859195e+06  4.0552588365407294e+00  0.0000000000000000e+00  1.3612123194683060e+07  -6.2582874184516314e+06  3.0820762963038092e+06  -2.6362125640298626e+06  2.2010122708949260e+06  -3.7531386977229030e+06  2.9278905381470853e+06  -3.3909738556258464e+06  2.9014249921161761e+06  -3.4001275452217381e+06  4.8337943357131975e+06  -4.1881920072662258e+06  6.0178773095151698e+06  -4.0109418547642953e+06  6.5411580010831011e+06  -4.0628866204999620e+06  7.0381636872101948e+06  -4.8030780986991618e+06  9.1043017494279314e+06  -7.6211457740143500e+06  1.5331426091337534e+07  -9.9414112552347668e+06  1.8750261450636853e+07  -1.4262450514682272e+07  2.4576215639940538e+07  -1.6444627873647157e+07  2.2881359544272907e+07  -1.5361561987475280e+07  2.6717400436886102e+07  3.4204634695589604e+00  0.0000000000000000e+00  5.8792710534723941e+06  -5.0006187225366840e+06  -1.5985497543699921e+06  -2.2219149437707523e+05  -3.6142587863543052e+06  2.4313439184548729e+06  -3.3909738621348762e+06  2.4552295799331483e+06  -3.5022777457106109e+06  3.4778892926382883e+06  -4.2440968812779589e+06  2.7277554037838988e+06  -3.9899482479549749e+06  2.2096906103259251e+06  -4.3905199741366636e+06  1.8612262529048722e+06  -3.7989675625310638e+06  1.1003133472678289e+06  -4.9678211120461859e+06  1.9836411649939336e+06  -8.9820696018430013e+06  2.6802194285384296e+06  -9.9414726913920827e+06  1.6271519665920539e+06  -1.0996624876860637e+07  1.3543621532859231e+05  -8.5725346477225330e+06  -5.4344996374432798e+06  9.4803864608556475e+05  2.8632834020926321e+00  0.0000000000000000e+00  1.2755716570043681e+07  -6.9682369966770252e+06  5.2779030880437046e+06  -4.3278828299114555e+06  4.3890452314838618e+06  -3.6064542373503121e+06  2.9014249970549759e+06  -3.5022777491700444e+06  3.9726202651452566e+06  -4.1528218283978123e+06  3.8999791356409788e+06  -3.7968843312462056e+06  5.2935900028997539e+06  -4.7590447380497344e+06  6.3234948216246087e+06  -4.3528821005125837e+06  5.6341519033830138e+06  -4.4315169293419896e+06  8.8231182255880814e+06  -6.9235243280116413e+06  1.2597283986696411e+07  -8.9821746257164162e+06  1.5331512352583498e+07  -9.5073574198207576e+06  1.4854623722364977e+07  -7.2057353152280273e+06  1.3678982329853110e+07  -8.8521994753177520e+06  1.8295674435530860e+07  2.3771182345035462e+00  0.0000000000000000e+00  4.2571518485869998e+06  -5.8603582444529971e+06  -1.6832061155860974e+06  -2.5988991282801144e+05  -3.3699860554837105e+06  1.1495152473508050e+06  -3.4001275774864252e+06  3.4778893110252251e+06  -4.1528218392899679e+06  3.3946950228004409e+06  -3.7266775860261237e+06  4.3361730956071345e+06  -5.0523866738238782e+06  3.7658288458514460e+06  -4.0446332053793925e+06  1.8638455717504243e+06  -2.8220683761058175e+06  2.2426396905879830e+06  -6.4785356827109177e+06  3.5459893098244858e+06  -6.9236989802867388e+06  1.9837857175933896e+06  -7.6211698508136589e+06  6.5837757525773579e+05  -6.6173928271540347e+06  -3.1652296930626505e+06  -4.2239574071101528e+06  -7.4050549899220224e+06  1.4699171486547517e+06  1.9556610901527443e+00  -3.9598199541539497e-09  1.2454847600046974e+07  -7.6775524330294644e+06  7.6714582073944043e+06  -5.1514049404347902e+06  5.0311879504741682e+06  -3.6347007124621044e+06  4.8337943592641968e+06  -4.2440968918470293e+06  3.8999791479320652e+06  -3.7266775902833831e+06  4.8764559150078539e+06  -5.3049241811483996e+06  4.7001059841524679e+06  -3.7657033209322402e+06  4.4469011470176429e+06  -3.5039524469912881e+06  5.1588463292295840e+06  -5.5799394891246418e+06  9.2755513666827790e+06  -6.4788069770573284e+06  8.8233477962659672e+06  -4.9678542547855992e+06  9.1042130140014607e+06  -4.1171606801306857e+06  8.8659492234123498e+06  -4.3787722433121437e+06  1.1245943571559034e+07  -7.7383854655713588e+06  1.5762403906116784e+07  1.5928981808112226e+00  0.0000000000000000e+00  2.6307079855972556e+06  -5.5968311873645280e+06  -1.9781934009201853e+06  -1.5760882987813256e+06  -2.7645589349177205e+06  1.1277749093690487e+06  -4.1881920915485136e+06  2.7277554414142086e+06  -3.7968843680186588e+06  4.3361731192531185e+06  -5.3049242007188797e+06  4.1741768996619517e+06  -3.2907540346850934e+06  3.6926977797690514e+06  -4.4041246979103750e+06  3.1580253743890608e+06  -4.1271034388065864e+06  3.8236515489855688e+06  -5.5803344261158425e+06  2.2429819811446741e+06  -4.4315617418817738e+06  1.1001633700603789e+06  -4.8029486722217249e+06  -1.0477429618353420e+06  -4.0203091328427312e+06  -3.1121405600701580e+06  -3.4736184024173659e+06  -6.8677475102807134e+06  9.4108505536053865e+05  1.2831092412492147e+00  5.0040366486291302e-06  1.2973638196514448e+07  -7.9693027893659705e+06  8.5437710437996201e+06  -4.9032929277031124e+06  6.4726155365715316e+06  -4.7619254106509760e+06  6.0178773504580753e+06  -3.9899482493275809e+06  5.2935900399517799e+06  -5.0523867062608022e+06  4.7001060155219333e+06  -3.2907540417568148e+06  4.2101235847778171e+06  -5.5267941980693256e+06  4.7669669986500852e+06  -2.8623769174212753e+06  4.0586047120434158e+06  -4.1276322690859092e+06  5.1593199626688696e+06  -2.8221228767490443e+06  5.6339165422913590e+06  -3.7987619944847524e+06  7.0381341709471755e+06  -3.7601008897620765e+06  8.4914381554430425e+06  -5.6196314434812758e+06  1.0810258748854777e+07  -7.6264014780911664e+06  1.4401137862782121e+07  1.0208673119415452e+00  0.0000000000000000e+00  1.4125855231103350e+06  -6.0074704614591086e+06  -1.7843734002795913e+06  -2.2527877979831547e+06  -3.6951476316098752e+06  1.0919352274705253e+06  -4.0109419835813530e+06  2.2096906823842782e+06  -4.7590448481242061e+06  3.7658289158219085e+06  -3.7657033742586290e+06  3.6926978075509882e+06  -5.5267942338235909e+06  4.7475203990137940e+06  -1.7358708646819023e+06  5.3418354385593219e+05  -2.8630242335335827e+06  3.1586277542278706e+06  -3.5040149502220382e+06  1.8635066409688126e+06  -4.3525823768744711e+06  1.8611881950833481e+06  -4.0630073235608516e+06  -6.7121773924782901e+04  -4.2845275367191397e+06  -2.0580925356302520e+06  -2.6443890399981923e+06  -6.5921387305963160e+06  9.8618081980011298e+05  8.0103878252656358e-01  3.7488288532471349e-09  1.3558057147417011e+07  -7.5340713942428092e+06  9.3601869187432658e+06  -5.5594809144232795e+06  8.2848729013009956e+06  -4.7920622592868404e+06  6.5411580617310889e+06  -4.3905200033622226e+06  6.3234949137564069e+06  -4.0446332516358290e+06  4.4469012152378429e+06  -4.4041247762662191e+06  4.7669671014584424e+06  -1.7358709080387587e+06  -1.7728976363106247e+05  -1.7365882222459724e+06  4.7676653326253416e+06  -4.4041911625136398e+06  4.4464572961020190e+06  -4.0442310256794263e+06  6.3234507246423243e+06  -4.3907046868881844e+06  6.5413038354940526e+06  -4.7920691453324240e+06  8.2848150285863038e+06  -5.5594459712779876e+06  9.3601902704238426e+06  -7.5340839656628612e+06  1.3558061361111963e+07  6.1878339180614139e-01  0.0000000000000000e+00  9.8618632302745036e+05  -6.5921403491704473e+06  -2.6444076334640011e+06  -2.0580598028116440e+06  -4.2845210695359120e+06  -6.7215932943062086e+04  -4.0628868319104197e+06  1.8612264124537536e+06  -4.3528823073452776e+06  1.8638457080016138e+06  -3.5039526237877575e+06  3.1580255336316549e+06  -2.8623770428066780e+06  5.3418354382939555e+05  -1.7365881788841761e+06  4.7482543920181515e+06  -5.5268622925639972e+06  3.6921739306168682e+06  -3.7652126578376805e+06  3.7657826478532772e+06  -4.7593034692576723e+06  2.2098973514113943e+06  -4.0109478071475853e+06  1.0918416644898774e+06  -3.6950906696463292e+06  -2.2527806976185250e+06  -1.7843993942228123e+06  -6.0074600120404772e+06  1.4125869556356280e+06  4.6955422774567368e-01  7.7033590955826834e-09  1.4401137685823509e+07  -7.6264111002070634e+06  1.0810275900959168e+07  -5.6196274904685915e+06  8.4913822450912446e+06  -3.7600291144884070e+06  7.0381638241425594e+06  -3.7989676549588381e+06  5.6341520572606334e+06  -2.8220684612126215e+06  5.1588464718153952e+06  -4.1271035120403236e+06  4.0586047119769636e+06  -2.8630241080679987e+06  4.7676652298259195e+06  -5.5268622568042390e+06  4.2095695797848674e+06  -3.2902110827818424e+06  4.7000603091389323e+06  -5.0527119860002697e+06  5.2938562239269800e+06  -3.9899490610156530e+06  6.0177390180258155e+06  -4.7618393212009575e+06  6.4726284009970864e+06  -4.9033368827694589e+06  8.5437895767262224e+06  -7.9692965680115316e+06  1.2973631293534834e+07  3.4909772072645845e-01  0.0000000000000000e+00  9.4108251498922228e+05  -6.8677399862928502e+06  -3.4736152899842011e+06  -3.1121715095164445e+06  -4.0202685644787676e+06  -1.0477224661965815e+06  -4.8030784285318814e+06  1.1003135628815747e+06  -4.4315171669549895e+06  2.2426398100369186e+06  -5.5799396315611890e+06  3.8236515489428272e+06  -4.1276321957304287e+06  3.1586275948898061e+06  -4.4041910842029974e+06  3.6921739028166290e+06  -3.2902110757182804e+06  4.1741318429864058e+06  -5.3052899887532517e+06  4.3364834518675180e+06  -3.7968789040252855e+06  2.7275710370966839e+06  -4.1880755208889656e+06  1.1277966095620575e+06  -2.7646279563745228e+06  -1.5760585773484136e+06  -1.9781816629165965e+06  -5.5968476174032185e+06  2.6307112927451939e+06  2.5345367728379559e-01  -4.1149278689273980e-09  1.5762406732713563e+07  -7.7383844749011053e+06  1.1245927936492663e+07  -4.3787515919442540e+06  8.8659621161614675e+06  -4.1172376492614034e+06  9.1043018973933533e+06  -4.9678211227984466e+06  8.8231182862384934e+06  -6.4785356341514159e+06  9.2755513665855844e+06  -5.5803342836387726e+06  5.1593198200241309e+06  -3.5040147732935683e+06  4.4464572279798612e+06  -3.7652126044594012e+06  4.7000602777943341e+06  -5.3052899691762486e+06  4.8767825992864780e+06  -3.7266672209787541e+06  3.8997591585382959e+06  -4.2439535994362673e+06  4.8338263565321798e+06  -3.6347971320982967e+06  5.0312300842319960e+06  -5.1513840238930453e+06  7.6714285219666166e+06  -7.6775444926046794e+06  1.2454852103622150e+07  1.7895521263078951e-01  0.0000000000000000e+00  1.4699189658629189e+06  -7.4050624285069667e+06  -4.2239466071194177e+06  -3.1652225073569990e+06  -6.6174346842772979e+06  6.5842662419723789e+05  -7.6211460628489004e+06  1.9836412446844578e+06  -6.9235244615900563e+06  3.5459893094501728e+06  -6.4788070251863487e+06  2.2429818616873184e+06  -2.8221227917032805e+06  1.8635065045201164e+06  -4.0442309796063132e+06  3.7657825777691985e+06  -5.0527119536272064e+06  4.3364834281932265e+06  -3.7266672167264307e+06  3.3944615722566433e+06  -4.1526632665044093e+06  3.4779301366230836e+06  -3.4002492729652096e+06  1.1495693598540069e+06  -3.3699552830091179e+06  -2.5993474794057099e+05  -1.6831947820339494e+06  -5.8603467454349194e+06  4.2571433882366251e+06  1.2222881813454652e-01  0.0000000000000000e+00  1.8295672278303541e+07  -8.8521956649275571e+06  1.3678986129029488e+07  -7.2057575166127002e+06  1.4854649084499512e+07  -9.5073422022291664e+06  1.5331426154191306e+07  -8.9820694767916128e+06  1.2597283986523746e+07  -6.9236988460234310e+06  8.8233477349906974e+06  -4.4315615042277323e+06  5.6339163886485565e+06  -4.3525821696902355e+06  6.3234506328214081e+06  -4.7593033589491639e+06  5.2938561870116917e+06  -3.7968788671783535e+06  3.8997591462767688e+06  -4.1526632556086844e+06  3.9726645894414047e+06  -3.5024143655148740e+06  2.9014876071218289e+06  -3.6064134493336389e+06  4.3889849550100928e+06  -4.3278671963109905e+06  5.2779225215455750e+06  -6.9682537177033639e+06  1.2755718540790660e+07  8.0194339953221921e-02  0.0000000000000000e+00  9.4804148229024059e+05  -5.4344982507398408e+06  -8.5725441793735791e+06  1.3544811985471420e+05  -1.0996614408402391e+07  1.6271027020157147e+06  -9.9414115000182483e+06  2.6802194278366477e+06  -8.9821747504954264e+06  1.9837856376163987e+06  -4.9678542433163114e+06  1.1001631542575583e+06  -3.7987619025611212e+06  1.8611880349185064e+06  -4.3907046582268635e+06  2.2098972789222007e+06  -3.9899490599343255e+06  2.7275709992999285e+06  -4.2439535889540361e+06  3.4779301182059669e+06  -3.5024143620589059e+06  2.4552952867549695e+06  -3.3909271344042490e+06  2.4312721266935305e+06  -3.6142405410379842e+06  -2.2216342135936875e+05  -1.5985762245992576e+06  -5.0006155413018810e+06  5.8792769653636683e+06  5.0064923907910258e-02  -1.1029025241772487e-08  2.6717401428551100e+07  -1.5361566782234913e+07  2.2881364502676945e+07  -1.6444622221275071e+07  2.4576188604712728e+07  -1.4262417356875824e+07  1.8750261449085776e+07  -9.9414724436818901e+06  1.5331512288993906e+07  -7.6211695622793688e+06  9.1042128654360268e+06  -4.8029483418708900e+06  7.0381340350119350e+06  -4.0630071110369745e+06  6.5413037758641196e+06  -4.0109476775053050e+06  6.0177389776610173e+06  -4.1880754362397613e+06  4.8338263331853542e+06  -3.4002492406018698e+06  2.9014876022146656e+06  -3.3909271278920956e+06  2.9278144180854503e+06  -3.7531187598309373e+06  2.2010468269743263e+06  -2.6362463969077957e+06  3.0820793050920335e+06  -6.2582737894108593e+06  1.3612115998620646e+07  2.9347139234104581e-02  0.0000000000000000e+00  -4.1693870111859888e+06  -7.2882796478284197e+05  -1.4221214796516374e+07  2.5736656250963295e+06  -1.5727068331697579e+07  4.4033489721677983e+06  -1.4262450708969653e+07  1.6271518287317348e+06  -9.5073574867562093e+06  6.5837735718260473e+05  -4.1171606527263210e+06  -1.0477431980050490e+06  -3.7601008680343367e+06  -6.7121929083825438e+04  -4.7920691449976042e+06  1.0918415576856222e+06  -4.7618393270175299e+06  1.1277965523538953e+06  -3.6347971502926392e+06  1.1495693360151660e+06  -3.6064134525815872e+06  2.4312721112186103e+06  -3.7531187558714650e+06  1.6892110390090661e+06  -2.3904317440638477e+06  3.6947347918090643e+05  -3.4534820262458129e+06  -2.5354017341138711e+06  8.2089106239725519e+06  1.5840854830237207e-02  0.0000000000000000e+00  4.6521569117989711e+07  -2.5128400433022857e+07  3.5383181511425115e+07  -2.3462691735387243e+07  2.8905472062646896e+07  -1.5727086332288947e+07  2.4576215510614365e+07  -1.0996624423057817e+07  1.4854623597682226e+07  -6.6173924097770872e+06  8.8659490908233132e+06  -4.0203087750481623e+06  8.4914380590865333e+06  -4.2845272787605282e+06  8.2848149742021924e+06  -3.6950904990867674e+06  6.4726283861016668e+06  -2.7646278547567432e+06  5.0312300777185960e+06  -3.3699552108072550e+06  4.3889849391992074e+06  -3.6142405046268697e+06  2.2010468235036358e+06  -2.3904317403671369e+06  1.0154731863438721e+06  -3.4258923593362947e+06  1.2016220964508115e+06  -2.7784242790782996e+06  1.4281233389189519e+07  7.6393011334091451e-03  0.0000000000000000e+00  -1.3911338423888095e+07  2.5117571802954054e+06  -2.2977464975577127e+07  9.3765116641392298e+06  -2.3462700494283769e+07  2.5736797881990410e+06  -1.6