<?xml version="1.0"?>
<VTKFile type="UnstructuredGrid"  version="0.1"  >
<UnstructuredGrid>
<Piece  NumberOfPoints="961" NumberOfCells="1800">
<Points>
<DataArray  type="Float64"  NumberOfComponents="3"  format="ascii">-1 -1 0  -0.9333333333333333 -1 0  -0.8666666666666667 -1 0  -0.8 -1 0  -0.7333333333333334 -1 0  -0.6666666666666667 -1 0  -0.6 -1 0  -0.5333333333333333 -1 0  -0.4666666666666667 -1 0  -0.4 -1 0  -0.3333333333333334 -1 0  -0.2666666666666667 -1 0  -0.2 -1 0  -0.1333333333333333 -1 0  -0.06666666666666665 -1 0  0 -1 0  0.06666666666666665 -1 0  0.1333333333333333 -1 0  0.2 -1 0  0.2666666666666666 -1 0  0.3333333333333333 -1 0  0.3999999999999999 -1 0  0.4666666666666666 -1 0  0.5333333333333334 -1 0  0.6000000000000001 -1 0  0.6666666666666667 -1 0  0.7333333333333334 -1 0  0.8 -1 0  0.8666666666666667 -1 0  0.9333333333333333 -1 0  1 -1 0  -1 -0.9333333333333333 0  -0.9333333333333333 -0.9333333333333333 0  -0.8666666666666667 -0.9333333333333333 0  -0.8 -0.9333333333333333 0  -0.7333333333333334 -0.9333333333333333 0  -0.6666666666666667 -0.9333333333333333 0  -0.6 -0.9333333333333333 0  -0.5333333333333333 -0.9333333333333333 0  -0.4666666666666667 -0.9333333333333333 0  -0.4 -0.9333333333333333 0  -0.3333333333333334 -0.9333333333333333 0  -0.2666666666666667 -0.9333333333333333 0  -0.2 -0.9333333333333333 0  -0.1333333333333333 -0.9333333333333333 0  -0.06666666666666665 -0.9333333333333333 0  0 -0.9333333333333333 0  0.06666666666666665 -0.9333333333333333 0  0.1333333333333333 -0.9333333333333333 0  0.2 -0.9333333333333333 0  0.2666666666666666 -0.9333333333333333 0  0.3333333333333333 -0.9333333333333333 0  0.3999999999999999 -0.9333333333333333 0  0.4666666666666666 -0.9333333333333333 0  0.5333333333333334 -0.9333333333333333 0  0.6000000000000001 -0.9333333333333333 0  0.6666666666666667 -0.9333333333333333 0  0.7333333333333334 -0.9333333333333333 0  0.8 -0.9333333333333333 0  0.8666666666666667 -0.9333333333333333 0  0.9333333333333333 -0.9333333333333333 0  1 -0.9333333333333333 0  -1 -0.8666666666666667 0  -0.9333333333333333 -0.8666666666666667 0  -0.8666666666666667 -0.8666666666666667 0  -0.8 -0.8666666666666667 0  -0.7333333333333334 -0.8666666666666667 0  -0.6666666666666667 -0.8666666666666667 0  -0.6 -0.8666666666666667 0  -0.5333333333333333 -0.8666666666666667 0  -0.4666666666666667 -0.8666666666666667 0  -0.4 -0.8666666666666667 0  -0.3333333333333334 -0.8666666666666667 0  -0.2666666666666667 -0.8666666666666667 0  -0.2 -0.8666666666666667 0  -0.1333333333333333 -0.8666666666666667 0  -0.06666666666666665 -0.8666666666666667 0  0 -0.8666666666666667 0  0.06666666666666665 -0.8666666666666667 0  0.1333333333333333 -0.8666666666666667 0  0.2 -0.8666666666666667 0  0.2666666666666666 -0.8666666666666667 0  0.3333333333333333 -0.8666666666666667 0  0.3999999999999999 -0.8666666666666667 0  0.4666666666666666 -0.8666666666666667 0  0.5333333333333334 -0.8666666666666667 0  0.6000000000000001 -0.8666666666666667 0  0.6666666666666667 -0.8666666666666667 0  0.7333333333333334 -0.8666666666666667 0  0.8 -0.8666666666666667 0  0.8666666666666667 -0.8666666666666667 0  0.9333333333333333 -0.8666666666666667 0  1 -0.8666666666666667 0  -1 -0.8 0  -0.9333333333333333 -0.8 0  -0.8666666666666667 -0.8 0  -0.8 -0.8 0  -0.7333333333333334 -0.8 0  -0.6666666666666667 -0.8 0  -0.6 -0.8 0  -0.5333333333333333 -0.8 0  -0.4666666666666667 -0.8 0  -0.4 -0.8 0  -0.3333333333333334 -0.8 0  -0.2666666666666667 -0.8 0  -0.2 -0.8 0  -0.1333333333333333 -0.8 0  -0.06666666666666665 -0.8 0  0 -0.8 0  0.06666666666666665 -0.8 0  0.1333333333333333 -0.8 0  0.2 -0.8 0  0.2666666666666666 -0.8 0  0.3333333333333333 -0.8 0  0.3999999999999999 -0.8 0  0.4666666666666666 -0.8 0  0.5333333333333334 -0.8 0  0.6000000000000001 -0.8 0  0.6666666666666667 -0.8 0  0.7333333333333334 -0.8 0  0.8 -0.8 0  0.8666666666666667 -0.8 0  0.9333333333333333 -0.8 0  1 -0.8 0  -1 -0.7333333333333334 0  -0.9333333333333333 -0.7333333333333334 0  -0.8666666666666667 -0.7333333333333334 0  -0.8 -0.7333333333333334 0  -0.7333333333333334 -0.7333333333333334 0  -0.6666666666666667 -0.7333333333333334 0  -0.6 -0.7333333333333334 0  -0.5333333333333333 -0.7333333333333334 0  -0.4666666666666667 -0.7333333333333334 0  -0.4 -0.7333333333333334 0  -0.3333333333333334 -0.7333333333333334 0  -0.2666666666666667 -0.7333333333333334 0  -0.2 -0.7333333333333334 0  -0.1333333333333333 -0.7333333333333334 0  -0.06666666666666665 -0.7333333333333334 0  0 -0.7333333333333334 0  0.06666666666666665 -0.7333333333333334 0  0.1333333333333333 -0.7333333333333334 0  0.2 -0.7333333333333334 0  0.2666666666666666 -0.7333333333333334 0  0.3333333333333333 -0.7333333333333334 0  0.3999999999999999 -0.7333333333333334 0  0.4666666666666666 -0.7333333333333334 0  0.5333333333333334 -0.7333333333333334 0  0.6000000000000001 -0.7333333333333334 0  0.6666666666666667 -0.7333333333333334 0  0.7333333333333334 -0.7333333333333334 0  0.8 -0.7333333333333334 0  0.8666666666666667 -0.7333333333333334 0  0.9333333333333333 -0.7333333333333334 0  1 -0.7333333333333334 0  -1 -0.6666666666666667 0  -0.9333333333333333 -0.6666666666666667 0  -0.8666666666666667 -0.6666666666666667 0  -0.8 -0.6666666666666667 0  -0.7333333333333334 -0.6666666666666667 0  -0.6666666666666667 -0.6666666666666667 0  -0.6 -0.6666666666666667 0  -0.5333333333333333 -0.6666666666666667 0  -0.4666666666666667 -0.6666666666666667 0  -0.4 -0.6666666666666667 0  -0.3333333333333334 -0.6666666666666667 0  -0.2666666666666667 -0.6666666666666667 0  -0.2 -0.6666666666666667 0  -0.1333333333333333 -0.6666666666666667 0  -0.06666666666666665 -0.6666666666666667 0  0 -0.6666666666666667 0  0.06666666666666665 -0.6666666666666667 0  0.1333333333333333 -0.6666666666666667 0  0.2 -0.6666666666666667 0  0.2666666666666666 -0.6666666666666667 0  0.3333333333333333 -0.6666666666666667 0  0.3999999999999999 -0.6666666666666667 0  0.4666666666666666 -0.6666666666666667 0  0.5333333333333334 -0.6666666666666667 0  0.6000000000000001 -0.6666666666666667 0  0.6666666666666667 -0.6666666666666667 0  0.7333333333333334 -0.6666666666666667 0  0.8 -0.6666666666666667 0  0.8666666666666667 -0.6666666666666667 0  0.9333333333333333 -0.6666666666666667 0  1 -0.6666666666666667 0  -1 -0.6 0  -0.9333333333333333 -0.6 0  -0.8666666666666667 -0.6 0  -0.8 -0.6 0  -0.7333333333333334 -0.6 0  -0.6666666666666667 -0.6 0  -0.6 -0.6 0  -0.5333333333333333 -0.6 0  -0.4666666666666667 -0.6 0  -0.4 -0.6 0  -0.3333333333333334 -0.6 0  -0.2666666666666667 -0.6 0  -0.2 -0.6 0  -0.1333333333333333 -0.6 0  -0.06666666666666665 -0.6 0  0 -0.6 0  0.06666666666666665 -0.6 0  0.1333333333333333 -0.6 0  0.2 -0.6 0  0.2666666666666666 -0.6 0  0.3333333333333333 -0.6 0  0.3999999999999999 -0.6 0  0.4666666666666666 -0.6 0  0.5333333333333334 -0.6 0  0.6000000000000001 -0.6 0  0.6666666666666667 -0.6 0  0.7333333333333334 -0.6 0  0.8 -0.6 0  0.8666666666666667 -0.6 0  0.9333333333333333 -0.6 0  1 -0.6 0  -1 -0.5333333333333333 0  -0.9333333333333333 -0.5333333333333333 0  -0.8666666666666667 -0.5333333333333333 0  -0.8 -0.5333333333333333 0  -0.7333333333333334 -0.5333333333333333 0  -0.6666666666666667 -0.5333333333333333 0  -0.6 -0.5333333333333333 0  -0.5333333333333333 -0.5333333333333333 0  -0.4666666666666667 -0.5333333333333333 0  -0.4 -0.5333333333333333 0  -0.3333333333333334 -0.5333333333333333 0  -0.2666666666666667 -0.5333333333333333 0  -0.2 -0.5333333333333333 0  -0.1333333333333333 -0.5333333333333333 0  -0.06666666666666665 -0.5333333333333333 0  0 -0.5333333333333333 0  0.06666666666666665 -0.5333333333333333 0  0.1333333333333333 -0.5333333333333333 0  0.2 -0.5333333333333333 0  0.2666666666666666 -0.5333333333333333 0  0.3333333333333333 -0.5333333333333333 0  0.3999999999999999 -0.5333333333333333 0  0.4666666666666666 -0.5333333333333333 0  0.5333333333333334 -0.5333333333333333 0  0.6000000000000001 -0.5333333333333333 0  0.6666666666666667 -0.5333333333333333 0  0.7333333333333334 -0.5333333333333333 0  0.8 -0.5333333333333333 0  0.8666666666666667 -0.5333333333333333 0  0.9333333333333333 -0.5333333333333333 0  1 -0.5333333333333333 0  -1 -0.4666666666666667 0  -0.9333333333333333 -0.4666666666666667 0  -0.8666666666666667 -0.4666666666666667 0  -0.8 -0.4666666666666667 0  -0.7333333333333334 -0.4666666666666667 0  -0.6666666666666667 -0.4666666666666667 0  -0.6 -0.4666666666666667 0  -0.5333333333333333 -0.4666666666666667 0  -0.4666666666666667 -0.4666666666666667 0  -0.4 -0.4666666666666667 0  -0.3333333333333334 -0.4666666666666667 0  -0.2666666666666667 -0.4666666666666667 0  -0.2 -0.4666666666666667 0  -0.1333333333333333 -0.4666666666666667 0  -0.06666666666666665 -0.4666666666666667 0  0 -0.4666666666666667 0  0.06666666666666665 -0.4666666666666667 0  0.1333333333333333 -0.4666666666666667 0  0.2 -0.4666666666666667 0  0.2666666666666666 -0.4666666666666667 0  0.3333333333333333 -0.4666666666666667 0  0.3999999999999999 -0.4666666666666667 0  0.4666666666666666 -0.4666666666666667 0  0.5333333333333334 -0.4666666666666667 0  0.6000000000000001 -0.4666666666666667 0  0.6666666666666667 -0.4666666666666667 0  0.7333333333333334 -0.4666666666666667 0  0.8 -0.4666666666666667 0  0.8666666666666667 -0.4666666666666667 0  0.9333333333333333 -0.4666666666666667 0  1 -0.4666666666666667 0  -1 -0.4 0  -0.9333333333333333 -0.4 0  -0.8666666666666667 -0.4 0  -0.8 -0.4 0  -0.7333333333333334 -0.4 0  -0.6666666666666667 -0.4 0  -0.6 -0.4 0  -0.5333333333333333 -0.4 0  -0.4666666666666667 -0.4 0  -0.4 -0.4 0  -0.3333333333333334 -0.4 0  -0.2666666666666667 -0.4 0  -0.2 -0.4 0  -0.1333333333333333 -0.4 0  -0.06666666666666665 -0.4 0  0 -0.4 0  0.06666666666666665 -0.4 0  0.1333333333333333 -0.4 0  0.2 -0.4 0  0.2666666666666666 -0.4 0  0.3333333333333333 -0.4 0  0.3999999999999999 -0.4 0  0.4666666666666666 -0.4 0  0.5333333333333334 -0.4 0  0.6000000000000001 -0.4 0  0.6666666666666667 -0.4 0  0.7333333333333334 -0.4 0 
[...]
<PointData  Scalars="f_24"> 
<DataArray  type="Float64"  Name="f_24"  format="ascii">0.0000000000000000e+00  0.0000000000000000e+00  0.0000000000000000e+00  0.0000000000000000e+00  0.0000000000000000e+00  0.0000000000000000e+00  0.0000000000000000e+00  0.0000000000000000e+00  0.0000000000000000e+00  0.0000000000000000e+00  0.0000000000000000e+00  0.0000000000000000e+00  0.0000000000000000e+00  0.0000000000000000e+00  0.0000000000000000e+00  0.0000000000000000e+00  0.0000000000000000e+00  0.0000000000000000e+00  0.0000000000000000e+00  0.0000000000000000e+00  0.0000000000000000e+00  0.0000000000000000e+00  0.0000000000000000e+00  0.0000000000000000e+00  0.0000000000000000e+00  -1.8396614037279201e-07  0.0000000000000000e+00  -9.7899849095446006e-08  0.0000000000000000e+00  0.0000000000000000e+00  1.3165354528896293e+01  0.0000000000000000e+00  1.1988443350677874e+07  1.3072815025049657e+07  1.9025278976703808e+07  1.3662310386874579e+07  1.8733317756292850e+07  1.0624647470087970e+07  1.7781689080450270e+07  7.4761157929582000e+06  1.6602215646471376e+07  5.2872879011259405e+06  1.6177849890563268e+07  3.1067042216048734e+06  1.6855268994293895e+07  1.4791812335064558e+06  1.7628762229308404e+07  9.1246586532265414e+05  1.8753976658741698e+07  8.6078059751858737e+05  2.0577018483609997e+07  1.5822381419170240e+06  2.3970064497551464e+07  9.1995768325220433e+05  3.5208877177758232e+07  -5.8354482884302279e+06  6.1603596518552378e+07  -1.8718220410794254e+07  1.0222883257202911e+08  -1.1496833763170583e+07  2.2251771762171307e+08  1.1495808785867036e+01  0.0000000000000000e+00  1.3072815004219770e+07  1.4329899244966909e+07  5.6682864192575850e+06  2.4247750759177348e+06  -4.0710658818358737e+06  -3.7542645504430034e+06  -8.6956604198867436e+06  -7.0038401939698709e+06  -9.5951142409391012e+06  -8.0950063785230434e+06  -1.0485700607590754e+07  -7.6967650521785598e+06  -1.0834477189434273e+07  -8.2149145392968860e+06  -1.0240708815505423e+07  -8.9909666392167117e+06  -1.0375689769969424e+07  -9.3824048784942720e+06  -1.0560713824479820e+07  -1.0141550950447861e+07  -1.2091224920311978e+07  -7.5703255438998695e+06  -2.0789449529009961e+07  -1.3407160197022073e+06  -3.3781186231624864e+07  2.9973646075752564e+06  -2.9200606336960811e+07  -1.8018747054677024e+07  -1.1496842050411668e+07  9.9903261138664678e+00  5.1009540406553513e-09  1.9025278967683189e+07  5.6682864228640813e+06  1.9314909323610170e+06  -4.7829763921824256e+06  1.2616811712917674e+06  -4.8601172225401122e+06  3.9142060598261645e+06  -2.2237119586802656e+06  7.0010118179434231e+06  -2.1854868051999514e+06  1.0311229295201464e+07  -2.4766240126367067e+06  1.1545612175572792e+07  -2.1702348558886135e+06  1.2655153465691632e+07  -3.3138847942284378e+06  1.4559481142584305e+07  -4.4648163160325512e+06  1.5065211592364768e+07  -5.5619210096324133e+06  1.8176060992742550e+07  -1.1490870261128703e+07  3.0251751662698533e+07  -1.9165609979082990e+07  4.6729362419313677e+07  -3.0914322713044353e+07  5.5913392805099912e+07  -2.9200605766970694e+07  1.0222883418192261e+08  8.6377891807041127e+00  0.0000000000000000e+00  1.3662310322235228e+07  2.4247750959562622e+06  -4.7829763982443605e+06  4.7359456397709344e+05  -4.7399085411602305e+06  4.4989770886132150e+05  -3.4104731084134318e+06  -8.5205005090145190e+04  -5.4557510418166677e+06  1.7323483860162050e+04  -6.4444267700081188e+06  -1.6635743643051207e+06  -6.0725769979810938e+06  -2.5407798591945069e+06  -6.9360608098034933e+06  -2.2833702304712748e+06  -7.0280850243825130e+06  -3.7103215131088877e+06  -5.4219914606102081e+06  -3.8513459990147506e+06  -9.2875027065540552e+06  3.8702944440168585e+05  -2.1772464861908708e+07  3.3855821495981687e+06  -3.1373432047199145e+07  1.2176162523972260e+07  -3.0914331431796674e+07  2.9973704920447604e+06  -1.8718227348884046e+07  7.4274704335764357e+00  -5.5529544530766393e-09  1.8733317737865813e+07  -4.0710658436933989e+06  1.2616811779185859e+06  -4.7399085449560797e+06  1.3588718693715653e+06  -2.9913141054727440e+06  3.2503089020838956e+06  -4.3952514301148178e+06  6.2929942036305834e+06  -4.0083863307854105e+06  7.1618094605670348e+06  -3.2140411015305622e+06  9.0582481473595612e+06  -4.4705856570209675e+06  1.1456407177034797e+07  -5.2557652573815780e+06  1.1739691516373312e+07  -4.8883944266577614e+06  1.2254843799914079e+07  -8.3342120245890478e+06  2.0201065976559374e+07  -1.4220335906000655e+07  3.2996524567702584e+07  -2.0729231866972376e+07  3.8448308021516509e+07  -3.1373442579476163e+07  4.6729372340135738e+07  -3.3781187305277176e+07  6.1603595968580000e+07  6.3490328553705124e+00  0.0000000000000000e+00  1.0624647376091758e+07  -3.7542644933154020e+06  -4.8601172761615217e+06  4.4989772077989683e+05  -2.9913141103760023e+06  2.6013053677075384e+06  -4.5453158193316450e+06  3.7048130665958691e+06  -4.3383887900191722e+06  1.9516957123038480e+06  -4.4488094604043672e+06  1.8492640053202037e+06  -6.0087696873865854e+06  1.7590942573164434e+06  -6.0705600972096231e+06  2.1733551121680578e+05  -4.6774497604859425e+06  -1.0455019940290230e+06  -5.0938510737594049e+06  1.2931758448534270e+06  -1.2192890584836114e+07  2.6256662235488710e+06  -1.8530192256443337e+07  6.2020210960991299e+06  -2.0729257101356640e+07  3.3856016482236711e+06  -1.9165617405327138e+07  -1.3407168614518901e+06  -5.8354506496398253e+06  5.3925292150359221e+00  1.2476425418171884e-09  1.7781689070508033e+07  -8.6956603634682689e+06  3.9142060544690066e+06  -3.4104730869233175e+06  3.2503089067721008e+06  -4.5453158245857721e+06  4.3633325634295605e+06  -4.0751260722893286e+06  4.2309421742218602e+06  -4.2119209120249934e+06  6.6832214780866709e+06  -5.3545556842322657e+06  8.1893666363917375e+06  -5.1622101249590339e+06  8.8644782715043500e+06  -5.2309997416304974e+06  9.5465114706680998e+06  -6.1718573706831904e+06  1.2361748307851136e+07  -9.8261432232458424e+06  2.0756136588204850e+07  -1.2792253492037823e+07  2.5393637177866902e+07  -1.8530236090676941e+07  3.2996560696114007e+07  -2.1772472135669298e+07  3.0251745230725873e+07  -2.0789442566642780e+07  3.5208876055873543e+07  4.5484024403961314e+00  0.0000000000000000e+00  7.4761156687260820e+06  -7.0038401132224323e+06  -2.2237120468734875e+06  -8.5204973232204065e+04  -4.3952514783237400e+06  3.7048130871464149e+06  -4.0751260809458746e+06  3.6187977473946828e+06  -4.3870683603330394e+06  4.8252076446729768e+06  -5.4939700779152950e+06  3.7423781274299575e+06  -5.2117159400313338e+06  3.0207172627448402e+06  -5.7591803836434232e+06  2.5578920782017317e+06  -4.9566959028196437e+06  1.5795899124280543e+06  -6.4551444434236465e+06  2.8387334516779217e+06  -1.1674492486362321e+07  3.9147101652202732e+06  -1.2792335187509414e+07  2.6257319123480259e+06  -1.4220350429013770e+07  3.8701398146619531e+05  -1.1490858475185623e+07  -7.5703268685206296e+06  9.1995289207523747e+05  3.8074855438532480e+00  3.4601998483346851e-08  1.6602215647010472e+07  -9.5951141585052647e+06  7.0010117993913703e+06  -5.4557510111564109e+06  6.2929942251035674e+06  -4.3383887858352885e+06  4.2309421807879927e+06  -4.3870683649300532e+06  5.4655561643252140e+06  -5.4013690229981365e+06  5.2664297225063471e+06  -4.9930842119911425e+06  7.0808958513635630e+06  -6.2937153040279979e+06  8.4412545672759842e+06  -5.7532428577665603e+06  7.5345937540599536e+06  -5.8355778841405436e+06  1.1814970629079439e+07  -9.0837568799296562e+06  1.6935368856892623e+07  -1.1674632143119035e+07  2.0756251295131885e+07  -1.2192910729033923e+07  2.0201032410738084e+07  -9.2874730239526983e+06  1.8176056062033601e+07  -1.2091229682670744e+07  2.3970067637816697e+07  3.1610018730844249e+00  0.0000000000000000e+00  5.2872877522069467e+06  -8.0950062815499678e+06  -2.1854869488845258e+06  1.7323565180686808e+04  -4.0083864259581896e+06  1.9516957436829566e+06  -4.2119209549338520e+06  4.8252076691257246e+06  -5.4013690374855483e+06  4.5846774831457818e+06  -4.9141748332525026e+06  5.7912804946814543e+06  -6.7014367344606267e+06  5.0205386763771577e+06  -5.3663210723639540e+06  2.4916989601998888e+06  -3.7350470246377001e+06  3.0081974744232004e+06  -8.5721786891111769e+06  4.7875720097790258e+06  -9.0839891258930061e+06  2.8389256722383476e+06  -9.8261752396550607e+06  1.2931109127068867e+06  -8.3341569218878411e+06  -3.8513551766224834e+06  -5.5619360885482049e+06  -1.0141540617664902e+07  1.5822349901747634e+06  2.6005638575597629e+00  -3.9598199541539497e-09  1.6177849905662911e+07  -1.0485700518707966e+07  1.0311229296471896e+07  -6.4444267300660126e+06  7.1618094706394728e+06  -4.4488094368236810e+06  6.6832215093976213e+06  -5.4939700919645447e+06  5.2664297388464008e+06  -4.9141748389107864e+06  6.5052203471108191e+06  -7.0434722643991010e+06  6.2559173065992976e+06  -5.0034823440468442e+06  5.9167012214988610e+06  -4.6553314842046220e+06  6.8663451059233900e+06  -7.4083878707638551e+06  1.2356106269466817e+07  -8.5725394460278265e+06  1.1815275903449733e+07  -6.4551885153714921e+06  1.2361630310849858e+07  -5.0937487592112012e+06  1.2254826832803482e+07  -5.4220188752515856e+06  1.5065232534975773e+07  -1.0560714997295920e+07  2.0577014942856316e+07  2.1181755155065352e+00  0.0000000000000000e+00  3.1067040285326662e+06  -7.6967649165660143e+06  -2.4766242191754859e+06  -1.6635742597613719e+06  -3.2140412344984259e+06  1.8492640803749915e+06  -5.3545557963129161e+06  3.7423781774734170e+06  -4.9930842608957216e+06  5.7912805261268513e+06  -7.0434722904262422e+06  5.5550775140883224e+06  -4.3739361418092856e+06  4.9113412025145032e+06  -5.8554931026059482e+06  4.2004644624001049e+06  -5.4858950722120125e+06  5.0890443155660965e+06  -7.4089130429776683e+06  3.0086526394056738e+06  -5.8356374741483321e+06  1.5793904784357673e+06  -6.1716852642640574e+06  -1.0455289359435013e+06  -4.8884488448481178e+06  -3.7102800184068992e+06  -4.4648210069427816e+06  -9.3824145616001152e+06  8.6078348180200800e+05  1.7062299469449596e+00  2.9502256885341810e-07  1.6855269042547952e+07  -1.0834477097230922e+07  1.1545612180531258e+07  -6.0725769275533529e+06  9.0582481702236347e+06  -6.0087696811537864e+06  8.1893666908298591e+06  -5.2117159418509807e+06  7.0808959006273998e+06  -6.7014367775884103e+06  6.2559173483097916e+06  -4.3739361512056012e+06  5.5987705592242656e+06  -7.3492048357291259e+06  6.3387215087600127e+06  -3.8062617809051462e+06  5.3975793888621479e+06  -5.4865982906332798e+06  6.8669749256819207e+06  -3.7351194975158395e+06  7.5342807798113944e+06  -4.9564225462246342e+06  9.5464722210575324e+06  -4.6775452359168632e+06  1.1739765997128889e+07  -7.0280902535594571e+06  1.4559458424270939e+07  -1.0375676843261123e+07  1.8753977022075195e+07  1.3575105871703053e+00  0.0000000000000000e+00  1.4791809755136790e+06  -8.2149143746310240e+06  -2.1702351134539968e+06  -2.5407797172018690e+06  -4.4705858798153335e+06  1.7590943973115643e+06  -5.1622102962726625e+06  3.0207173585685897e+06  -6.2937154504070012e+06  5.0205387694229521e+06  -5.0034824149620542e+06  4.9113412394610448e+06  -7.3492048832814237e+06  6.3129068175736340e+06  -2.3083654276712220e+06  7.1027016601332149e+05  -3.8071225572912055e+06  4.2012654842348816e+06  -4.6554145986276306e+06  2.4912482629183796e+06  -5.7528442966576964e+06  2.5578414703577920e+06  -5.2311602479776014e+06  2.1746092388820185e+05  -5.2557741948441956e+06  -2.2834135216140216e+06  -3.3138604387120558e+06  -8.9909642783011049e+06  9.1245820624705846e+05  1.0651909560564783e+00  -7.4976577064942699e-09  1.7628762310657945e+07  -1.0240708694422901e+07  1.2655153484330961e+07  -6.9360607503367858e+06  1.1456407254222130e+07  -6.0705601001256853e+06  8.8644783521360755e+06  -5.7591804224897362e+06  8.4412546897812933e+06  -5.3663211338661723e+06  5.9167013122112714e+06  -5.8554932067925911e+06  6.3387216454645628e+06  -2.3083654853138709e+06  -2.3613171869779806e+05  -2.3093193425138053e+06  6.3396501267540082e+06  -5.8555814847054891e+06  5.9161110054000253e+06  -5.3657862690626867e+06  8.4411959287744872e+06  -5.7594260076353969e+06  8.8646721965608671e+06  -6.0705692569238422e+06  1.1456330297283527e+07  -6.9360142842705697e+06  1.2655157941272594e+07  -1.0240725411421061e+07  1.7628767913873464e+07  8.2283465805601830e-01  0.0000000000000000e+00  9.1246552423098427e+05  -8.9909664306202009e+06  -3.3138851635957607e+06  -2.2833699947557868e+06  -5.2557655950275576e+06  2.1733571481045193e+05  -5.2310000227578180e+06  2.5578922903662561e+06  -5.7532431328089405e+06  2.4916991413832288e+06  -4.6553317193048755e+06  4.2004646741534928e+06  -3.8062619476410910e+06  7.1027016597509570e+05  -2.3093192848563530e+06  6.3138828536007497e+06  -7.3492953852078738e+06  4.9106446078076027e+06  -5.0028298788980329e+06  5.0204772440345148e+06  -6.2940593549689408e+06  3.0209921791938776e+06  -5.1622180402174536e+06  1.7589699808009772e+06  -4.4705101339619886e+06  -2.5407702754065744e+06  -2.1702696792132817e+06  -8.2149004793905746e+06  1.4791828804311219e+06  6.2439538220009883e-01  0.0000000000000000e+00  1.8753976786757868e+07  -1.0375689638385218e+07  1.4559481232485577e+07  -7.0280849969951781e+06  1.1739691649668986e+07  -4.6774497918796139e+06  9.5465116527342070e+06  -4.9566960257152906e+06  7.5345939586779689e+06  -3.7350471378030903e+06  6.8663452955259783e+06  -5.4858951695950609e+06  5.3975793887815569e+06  -3.8071223904524641e+06  6.3396499900633926e+06  -7.3492953376541231e+06  5.5980338644219982e+06  -4.3732141449812595e+06  6.2558565696972692e+06  -6.7018693222342758e+06  7.0812498619693667e+06  -5.2117170212019105e+06  8.1891827416144544e+06  -6.0086552026720522e+06  9.0582652768480070e+06  -6.0726353773317840e+06  1.1545636824913541e+07  -1.0834468824309936e+07  1.6855259863227818e+07  4.6421690008270966e-01  0.0000000000000000e+00  8.6078010371357447e+05  -9.3824045564858690e+06  -4.4648168681468545e+06  -3.7103211738065868e+06  -4.8883948985724542e+06  -1.0455016816168732e+06  -6.1718578092788439e+06  1.5795901991507134e+06  -5.8355782001093244e+06  3.0081976332582417e+06  -7.4083880601724936e+06  5.0890443155139247e+06  -5.4865981930952016e+06  4.2012652723530298e+06  -5.8555813805767251e+06  4.9106445708381133e+06  -4.3732141355908001e+06  5.5550175994319590e+06  -7.0439587014610087e+06  5.7916931946526803e+06  -4.9930769950852739e+06  3.7421329636140820e+06  -5.3544007850775123e+06  1.8492929364670629e+06  -3.2141330166118122e+06  -1.6635347373291270e+06  -2.4766086104245163e+06  -7.6967867646074919e+06  3.1067084262521337e+06  3.3703307593974513e-01  0.0000000000000000e+00  2.0577018701553304e+07  -1.0560713679941315e+07  1.5065211744055495e+07  -5.4219914138477501e+06  1.2254843977090446e+07  -5.0938511098309876e+06  1.2361748504604001e+07  -6.4551444577264339e+06  1.1814970709726088e+07  -8.5721786245293953e+06  1.2356106269335289e+07  -7.4089128535165153e+06  6.8669747360033691e+06  -4.6554143633559672e+06  5.9161109148214469e+06  -5.0028298079152852e+06  6.2558565280199675e+06  -7.0439586754261525e+06  6.5056547594588101e+06  -4.9141610502042780e+06  5.2661372053040219e+06  -5.4937795471582832e+06  6.6832640581497150e+06  -4.4489376519946968e+06  7.1618654985104781e+06  -6.4443989160436932e+06  1.0311189821917638e+07  -1.0485689959832320e+07  1.6177855894346202e+07  2.3796784649082800e-01  0.0000000000000000e+00  1.5822374066287589e+06  -1.0141550509210946e+07  -5.5619217271301197e+06  -3.8513456213437594e+06  -8.3342125819012895e+06  1.2931761361328382e+06  -9.8261436073226314e+06  2.8387335576505363e+06  -9.0837570575526804e+06  4.7875720092801629e+06  -8.5725395100323781e+06  3.0086524805568648e+06  -3.7351193844356849e+06  2.4912480814741310e+06  -5.3657862078039348e+06  5.0204771508380258e+06  -6.7018692791892188e+06  5.7916931631694185e+06  -4.9141610445516342e+06  4.5843670494768880e+06  -5.4011581734168064e+06  4.8252619574553482e+06  -4.2120827809602320e+06  1.9517677004346077e+06  -4.0083455058904020e+06  1.7263945150106338e+04  -2.1854718779574726e+06  -8.0949909905923652e+06  5.2872765019538701e+06  1.6253524109748521e-01  0.0000000000000000e+00  2.3970064769213181e+07  -1.2091224615756745e+07  1.8176061114025809e+07  -9.2875025465051252e+06  2.0201066136328671e+07  -1.2192890493243461e+07  2.0756136671774931e+07  -1.1674492320062617e+07  1.6935368856637623e+07  -9.0839889473553188e+06  1.1815275821970118e+07  -5.8356371581269577e+06  7.5342805755090648e+06  -5.7528440211563772e+06  8.4411958066833951e+06  -6.2940592082788497e+06  7.0812498128872355e+06  -4.9930769460813245e+06  5.2661371890030382e+06  -5.4011581589235617e+06  5.4656151050908379e+06  -4.3872500321578868e+06  4.2310254372773245e+06  -4.3383345474801101e+06  6.2929140717374906e+06  -5.4557302221888583e+06  7.0010376413244968e+06  -9.5951363934909105e+06  1.6602218267635232e+07  1.0663930548529027e-01  0.0000000000000000e+00  9.1995666355271195e+05  -7.5703250245348122e+06  -1.1490871150012292e+07  3.8702981165577110e+05  -1.4220336508458154e+07  2.6256664021870210e+06  -1.2792253817535328e+07  3.9147101642884896e+06  -1.1674632309038661e+07  2.8389255658871070e+06  -6.4551885001431135e+06  1.5793901914662509e+06  -4.9564224239993189e+06  2.5578412573739938e+06  -5.7594259695252990e+06  3.0209920827938435e+06  -5.2117170197717687e+06  3.7421329133493318e+06  -5.4937795332246684e+06  4.8252619329626542e+06  -4.3872500275665643e+06  3.6188851218312685e+06  -4.0750639441842302e+06  3.7047176211879710e+06  -4.3952272163954442e+06  -8.5167642799583395e+04  -2.2237472459790679e+06  -7.0038358829370020e+06  7.4761235301339682e+06  6.6574434753529935e-02  2.2058050483544975e-08  3.5208877374543525e+07  -2.0789448942525890e+07  3.0251751824212771e+07  -2.1772464619354673e+07  3.2996524745687705e+07  -1.8530191998686943e+07  2.5393637175804194e+07  -1.2792334858102502e+07  2.0756251210566826e+07  -9.8261748559771366e+06  1.2361630113288637e+07  -6.1716848249803400e+06  9.5464720402836520e+06  -5.2311599653748432e+06  8.8646721172633413e+06  -5.1622178678328451e+06  8.1891826879458660e+06  -5.3544006725069331e+06  6.6832640271101519e+06  -4.2120827379200188e+06  4.2310254307532366e+06  -4.0750639355236441e+06  4.3632313418617323e+06  -4.5452893119350029e+06  3.2503548581341077e+06  -3.4105180766000547e+06  3.9142100554418596e+06  -8.6956422400876414e+06  1.7781679501457758e+07  3.9024711387506142e-02  0.0000000000000000e+00  -5.8354498007195545e+06  -1.3407152552397214e+06  -1.9165611171302658e+07  3.3855824647770026e+06  -2.0729232507253800e+07  6.2020210971831074e+06  -1.8530236349018641e+07  2.6257317290485767e+06  -1.2192910818012344e+07  1.2931106227374657e+06  -5.0937487227679873e+06  -1.0455292499937712e+06  -4.6775452070364263e+06  2.1746071756146214e+05  -6.0705692564976448e+06  1.7589698387753919e+06  -6.0086552104191193e+06  1.8492928603826719e+06  -4.4489376762029054e+06  1.9517676687195548e+06  -4.3383345518176993e+06  3.7047176005917089e+06  -4.5452893066852549e+06  2.6013546293714200e+06  -2.9913652915257406e+06  4.4990160547365819e+05  -4.8600917916136105e+06  -3.7542811038377914e+06  1.0624646372524498e+07  2.1064567246234050e-02  0.0000000000000000e+00  6.1603596524924092e+07  -3.3781185314999744e+07  4.6729362707851842e+07  -3.1373431519141752e+07  3.8448308009968139e+07  -2.0729256443749875e+07  3.2996560524168152e+07  -1.4220349825528115e+07  2.0201032244976643e+07  -8.3341563668375304e+06  1.2254826656531742e+07  -4.8884483690344561e+06  1.1739765869026905e+07  -5.2557738518023910e+06  1.1456330224981422e+07  -4.4705099071466345e+06  9.0582652570467927e+06  -3.2141328814839181e+06  7.1618654898414230e+06  -4.0083454098952017e+06  6.2929140506893182e+06  -4.3952271680035312e+06  3.2503548534973087e+06  -2.9913652866176749e+06  1.3588755928048003e+06  -4.7398780688019702e+06  1.2616591702075014e+06  -4.0710672210292211e+06  1.8733325790270004e+07  1.0158452568592810e-02  0.0000000000000000e+00  -1.8718223007268943e+07  2.9973656478498718e+06  -3.0914323999628704e+07  1.2176162507913090e+07  -3.1373443166394886e+07  3.3856012983370195e+06  -2.177247237