<?xml version="1.0"?>
<VTKFile type="UnstructuredGrid"  version="0.1"  >
<UnstructuredGrid>
<Piece  NumberOfPoints="961" NumberOfCells="1800">
<Points>
<DataArray  type="Float64"  NumberOfComponents="3"  format="ascii">-1 -1 0  -0.9333333333333333 -1 0  -0.8666666666666667 -1 0  -0.8 -1 0  -0.7333333333333334 -1 0  -0.6666666666666667 -1 0  -0.6 -1 0  -0.5333333333333333 -1 0  -0.4666666666666667 -1 0  -0.4 -1 0  -0.3333333333333334 -1 0  -0.2666666666666667 -1 0  -0.2 -1 0  -0.1333333333333333 -1 0  -0.06666666666666665 -1 0  0 -1 0  0.06666666666666665 -1 0  0.1333333333333333 -1 0  0.2 -1 0  0.2666666666666666 -1 0  0.3333333333333333 -1 0  0.3999999999999999 -1 0  0.4666666666666666 -1 0  0.5333333333333334 -1 0  0.6000000000000001 -1 0  0.6666666666666667 -1 0  0.7333333333333334 -1 0  0.8 -1 0  0.8666666666666667 -1 0  0.9333333333333333 -1 0  1 -1 0  -1 -0.9333333333333333 0  -0.9333333333333333 -0.9333333333333333 0  -0.8666666666666667 -0.9333333333333333 0  -0.8 -0.9333333333333333 0  -0.7333333333333334 -0.9333333333333333 0  -0.6666666666666667 -0.9333333333333333 0  -0.6 -0.9333333333333333 0  -0.5333333333333333 -0.9333333333333333 0  -0.4666666666666667 -0.9333333333333333 0  -0.4 -0.9333333333333333 0  -0.3333333333333334 -0.9333333333333333 0  -0.2666666666666667 -0.9333333333333333 0  -0.2 -0.9333333333333333 0  -0.1333333333333333 -0.9333333333333333 0  -0.06666666666666665 -0.9333333333333333 0  0 -0.9333333333333333 0  0.06666666666666665 -0.9333333333333333 0  0.1333333333333333 -0.9333333333333333 0  0.2 -0.9333333333333333 0  0.2666666666666666 -0.9333333333333333 0  0.3333333333333333 -0.9333333333333333 0  0.3999999999999999 -0.9333333333333333 0  0.4666666666666666 -0.9333333333333333 0  0.5333333333333334 -0.9333333333333333 0  0.6000000000000001 -0.9333333333333333 0  0.6666666666666667 -0.9333333333333333 0  0.7333333333333334 -0.9333333333333333 0  0.8 -0.9333333333333333 0  0.8666666666666667 -0.9333333333333333 0  0.9333333333333333 -0.9333333333333333 0  1 -0.9333333333333333 0  -1 -0.8666666666666667 0  -0.9333333333333333 -0.8666666666666667 0  -0.8666666666666667 -0.8666666666666667 0  -0.8 -0.8666666666666667 0  -0.7333333333333334 -0.8666666666666667 0  -0.6666666666666667 -0.8666666666666667 0  -0.6 -0.8666666666666667 0  -0.5333333333333333 -0.8666666666666667 0  -0.4666666666666667 -0.8666666666666667 0  -0.4 -0.8666666666666667 0  -0.3333333333333334 -0.8666666666666667 0  -0.2666666666666667 -0.8666666666666667 0  -0.2 -0.8666666666666667 0  -0.1333333333333333 -0.8666666666666667 0  -0.06666666666666665 -0.8666666666666667 0  0 -0.8666666666666667 0  0.06666666666666665 -0.8666666666666667 0  0.1333333333333333 -0.8666666666666667 0  0.2 -0.8666666666666667 0  0.2666666666666666 -0.8666666666666667 0  0.3333333333333333 -0.8666666666666667 0  0.3999999999999999 -0.8666666666666667 0  0.4666666666666666 -0.8666666666666667 0  0.5333333333333334 -0.8666666666666667 0  0.6000000000000001 -0.8666666666666667 0  0.6666666666666667 -0.8666666666666667 0  0.7333333333333334 -0.8666666666666667 0  0.8 -0.8666666666666667 0  0.8666666666666667 -0.8666666666666667 0  0.9333333333333333 -0.8666666666666667 0  1 -0.8666666666666667 0  -1 -0.8 0  -0.9333333333333333 -0.8 0  -0.8666666666666667 -0.8 0  -0.8 -0.8 0  -0.7333333333333334 -0.8 0  -0.6666666666666667 -0.8 0  -0.6 -0.8 0  -0.5333333333333333 -0.8 0  -0.4666666666666667 -0.8 0  -0.4 -0.8 0  -0.3333333333333334 -0.8 0  -0.2666666666666667 -0.8 0  -0.2 -0.8 0  -0.1333333333333333 -0.8 0  -0.06666666666666665 -0.8 0  0 -0.8 0  0.06666666666666665 -0.8 0  0.1333333333333333 -0.8 0  0.2 -0.8 0  0.2666666666666666 -0.8 0  0.3333333333333333 -0.8 0  0.3999999999999999 -0.8 0  0.4666666666666666 -0.8 0  0.5333333333333334 -0.8 0  0.6000000000000001 -0.8 0  0.6666666666666667 -0.8 0  0.7333333333333334 -0.8 0  0.8 -0.8 0  0.8666666666666667 -0.8 0  0.9333333333333333 -0.8 0  1 -0.8 0  -1 -0.7333333333333334 0  -0.9333333333333333 -0.7333333333333334 0  -0.8666666666666667 -0.7333333333333334 0  -0.8 -0.7333333333333334 0  -0.7333333333333334 -0.7333333333333334 0  -0.6666666666666667 -0.7333333333333334 0  -0.6 -0.7333333333333334 0  -0.5333333333333333 -0.7333333333333334 0  -0.4666666666666667 -0.7333333333333334 0  -0.4 -0.7333333333333334 0  -0.3333333333333334 -0.7333333333333334 0  -0.2666666666666667 -0.7333333333333334 0  -0.2 -0.7333333333333334 0  -0.1333333333333333 -0.7333333333333334 0  -0.06666666666666665 -0.7333333333333334 0  0 -0.7333333333333334 0  0.06666666666666665 -0.7333333333333334 0  0.1333333333333333 -0.7333333333333334 0  0.2 -0.7333333333333334 0  0.2666666666666666 -0.7333333333333334 0  0.3333333333333333 -0.7333333333333334 0  0.3999999999999999 -0.7333333333333334 0  0.4666666666666666 -0.7333333333333334 0  0.5333333333333334 -0.7333333333333334 0  0.6000000000000001 -0.7333333333333334 0  0.6666666666666667 -0.7333333333333334 0  0.7333333333333334 -0.7333333333333334 0  0.8 -0.7333333333333334 0  0.8666666666666667 -0.7333333333333334 0  0.9333333333333333 -0.7333333333333334 0  1 -0.7333333333333334 0  -1 -0.6666666666666667 0  -0.9333333333333333 -0.6666666666666667 0  -0.8666666666666667 -0.6666666666666667 0  -0.8 -0.6666666666666667 0  -0.7333333333333334 -0.6666666666666667 0  -0.6666666666666667 -0.6666666666666667 0  -0.6 -0.6666666666666667 0  -0.5333333333333333 -0.6666666666666667 0  -0.4666666666666667 -0.6666666666666667 0  -0.4 -0.6666666666666667 0  -0.3333333333333334 -0.6666666666666667 0  -0.2666666666666667 -0.6666666666666667 0  -0.2 -0.6666666666666667 0  -0.1333333333333333 -0.6666666666666667 0  -0.06666666666666665 -0.6666666666666667 0  0 -0.6666666666666667 0  0.06666666666666665 -0.6666666666666667 0  0.1333333333333333 -0.6666666666666667 0  0.2 -0.6666666666666667 0  0.2666666666666666 -0.6666666666666667 0  0.3333333333333333 -0.6666666666666667 0  0.3999999999999999 -0.6666666666666667 0  0.4666666666666666 -0.6666666666666667 0  0.5333333333333334 -0.6666666666666667 0  0.6000000000000001 -0.6666666666666667 0  0.6666666666666667 -0.6666666666666667 0  0.7333333333333334 -0.6666666666666667 0  0.8 -0.6666666666666667 0  0.8666666666666667 -0.6666666666666667 0  0.9333333333333333 -0.6666666666666667 0  1 -0.6666666666666667 0  -1 -0.6 0  -0.9333333333333333 -0.6 0  -0.8666666666666667 -0.6 0  -0.8 -0.6 0  -0.7333333333333334 -0.6 0  -0.6666666666666667 -0.6 0  -0.6 -0.6 0  -0.5333333333333333 -0.6 0  -0.4666666666666667 -0.6 0  -0.4 -0.6 0  -0.3333333333333334 -0.6 0  -0.2666666666666667 -0.6 0  -0.2 -0.6 0  -0.1333333333333333 -0.6 0  -0.06666666666666665 -0.6 0  0 -0.6 0  0.06666666666666665 -0.6 0  0.1333333333333333 -0.6 0  0.2 -0.6 0  0.2666666666666666 -0.6 0  0.3333333333333333 -0.6 0  0.3999999999999999 -0.6 0  0.4666666666666666 -0.6 0  0.5333333333333334 -0.6 0  0.6000000000000001 -0.6 0  0.6666666666666667 -0.6 0  0.7333333333333334 -0.6 0  0.8 -0.6 0  0.8666666666666667 -0.6 0  0.9333333333333333 -0.6 0  1 -0.6 0  -1 -0.5333333333333333 0  -0.9333333333333333 -0.5333333333333333 0  -0.8666666666666667 -0.5333333333333333 0  -0.8 -0.5333333333333333 0  -0.7333333333333334 -0.5333333333333333 0  -0.6666666666666667 -0.5333333333333333 0  -0.6 -0.5333333333333333 0  -0.5333333333333333 -0.5333333333333333 0  -0.4666666666666667 -0.5333333333333333 0  -0.4 -0.5333333333333333 0  -0.3333333333333334 -0.5333333333333333 0  -0.2666666666666667 -0.5333333333333333 0  -0.2 -0.5333333333333333 0  -0.1333333333333333 -0.5333333333333333 0  -0.06666666666666665 -0.5333333333333333 0  0 -0.5333333333333333 0  0.06666666666666665 -0.5333333333333333 0  0.1333333333333333 -0.5333333333333333 0  0.2 -0.5333333333333333 0  0.2666666666666666 -0.5333333333333333 0  0.3333333333333333 -0.5333333333333333 0  0.3999999999999999 -0.5333333333333333 0  0.4666666666666666 -0.5333333333333333 0  0.5333333333333334 -0.5333333333333333 0  0.6000000000000001 -0.5333333333333333 0  0.6666666666666667 -0.5333333333333333 0  0.7333333333333334 -0.5333333333333333 0  0.8 -0.5333333333333333 0  0.8666666666666667 -0.5333333333333333 0  0.9333333333333333 -0.5333333333333333 0  1 -0.5333333333333333 0  -1 -0.4666666666666667 0  -0.9333333333333333 -0.4666666666666667 0  -0.8666666666666667 -0.4666666666666667 0  -0.8 -0.4666666666666667 0  -0.7333333333333334 -0.4666666666666667 0  -0.6666666666666667 -0.4666666666666667 0  -0.6 -0.4666666666666667 0  -0.5333333333333333 -0.4666666666666667 0  -0.4666666666666667 -0.4666666666666667 0  -0.4 -0.4666666666666667 0  -0.3333333333333334 -0.4666666666666667 0  -0.2666666666666667 -0.4666666666666667 0  -0.2 -0.4666666666666667 0  -0.1333333333333333 -0.4666666666666667 0  -0.06666666666666665 -0.4666666666666667 0  0 -0.4666666666666667 0  0.06666666666666665 -0.4666666666666667 0  0.1333333333333333 -0.4666666666666667 0  0.2 -0.4666666666666667 0  0.2666666666666666 -0.4666666666666667 0  0.3333333333333333 -0.4666666666666667 0  0.3999999999999999 -0.4666666666666667 0  0.4666666666666666 -0.4666666666666667 0  0.5333333333333334 -0.4666666666666667 0  0.6000000000000001 -0.4666666666666667 0  0.6666666666666667 -0.4666666666666667 0  0.7333333333333334 -0.4666666666666667 0  0.8 -0.4666666666666667 0  0.8666666666666667 -0.4666666666666667 0  0.9333333333333333 -0.4666666666666667 0  1 -0.4666666666666667 0  -1 -0.4 0  -0.9333333333333333 -0.4 0  -0.8666666666666667 -0.4 0  -0.8 -0.4 0  -0.7333333333333334 -0.4 0  -0.6666666666666667 -0.4 0  -0.6 -0.4 0  -0.5333333333333333 -0.4 0  -0.4666666666666667 -0.4 0  -0.4 -0.4 0  -0.3333333333333334 -0.4 0  -0.2666666666666667 -0.4 0  -0.2 -0.4 0  -0.1333333333333333 -0.4 0  -0.06666666666666665 -0.4 0  0 -0.4 0  0.06666666666666665 -0.4 0  0.1333333333333333 -0.4 0  0.2 -0.4 0  0.2666666666666666 -0.4 0  0.3333333333333333 -0.4 0  0.3999999999999999 -0.4 0  0.4666666666666666 -0.4 0  0.5333333333333334 -0.4 0  0.6000000000000001 -0.4 0  0.6666666666666667 -0.4 0  0.7333333333333334 -0.4 0 
[...]
<PointData  Scalars="f_24"> 
<DataArray  type="Float64"  Name="f_24"  format="ascii">0.0000000000000000e+00  0.0000000000000000e+00  0.0000000000000000e+00  0.0000000000000000e+00  0.0000000000000000e+00  0.0000000000000000e+00  0.0000000000000000e+00  0.0000000000000000e+00  0.0000000000000000e+00  0.0000000000000000e+00  0.0000000000000000e+00  0.0000000000000000e+00  0.0000000000000000e+00  0.0000000000000000e+00  0.0000000000000000e+00  0.0000000000000000e+00  0.0000000000000000e+00  0.0000000000000000e+00  0.0000000000000000e+00  0.0000000000000000e+00  0.0000000000000000e+00  0.0000000000000000e+00  0.0000000000000000e+00  0.0000000000000000e+00  0.0000000000000000e+00  -1.1947516320894329e-07  0.0000000000000000e+00  -2.4474962273861502e-08  0.0000000000000000e+00  0.0000000000000000e+00  9.9501609034403291e+00  0.0000000000000000e+00  9.1069443752046954e+06  9.9698658345941678e+06  1.4507853984951507e+07  1.0489539258657198e+07  1.4352165718773283e+07  8.2493243819996156e+06  1.3679546405343138e+07  5.9078726296600774e+06  1.2818737744025270e+07  4.2775357359127169e+06  1.2516293502998861e+07  2.6428894746468575e+06  1.3037649511533732e+07  1.4186394979540263e+06  1.3624987752351211e+07  9.9010428149639745e+05  1.4472306284699133e+07  9.4479815754696296e+05  1.5840434890122948e+07  1.4763358774771409e+06  1.8386464894969042e+07  9.5192765246926132e+05  2.6850513888420768e+07  -4.1910221055369470e+06  4.6754105599823304e+07  -1.3981620469925784e+07  7.7394878870683834e+07  -8.5966623717534393e+06  1.6822493559687659e+08  8.6883453752421964e+00  0.0000000000000000e+00  9.9698658189033642e+06  1.0996453223963371e+07  4.5086589102980997e+06  2.0959390572476308e+06  -2.7933151508751279e+06  -2.5490824212261280e+06  -6.2906166747202249e+06  -5.0265868844366828e+06  -7.0039908099937933e+06  -5.8904734513508184e+06  -7.7166923204807006e+06  -5.6254672530142767e+06  -8.0097723535296032e+06  -6.0380685298546357e+06  -7.5723061863047900e+06  -6.6256627001606068e+06  -7.6651492393951779e+06  -6.9027275863892287e+06  -7.7778045663811667e+06  -7.4428905476655122e+06  -8.8973588628272973e+06  -5.4626051605399344e+06  -1.5439490570708519e+07  -7.3343387366843375e+05  -2.5255297172249489e+07  2.5234706329879761e+06  -2.1846757526154894e+07  -1.3451028357234366e+07  -8.5966686351768076e+06  7.5505260482379706e+00  -2.8338633559196397e-09  1.4507853978242423e+07  4.5086589130745986e+06  1.7352536812755337e+06  -3.3329401341261840e+06  1.2068181881523596e+06  -3.4714335291857612e+06  3.0971957485934803e+06  -1.6065666958971496e+06  5.3046822754782774e+06  -1.6910137304962426e+06  7.7108075482036723e+06  -1.9869969903967108e+06  8.5878669399411958e+06  -1.7919501295665258e+06  9.4085058319064155e+06  -2.6562908440929176e+06  1.0865741734215697e+07  -3.4898996714266334e+06  1.1303215265629683e+07  -4.2444601348046875e+06  1.3747912625536252e+07  -8.6154716152388062e+06  2.2995780266242728e+07  -1.4293063121409632e+07  3.5559748821229592e+07  -2.3093554883591801e+07  4.2526758827817142e+07  -2.1846757095407810e+07  7.7394880087317020e+07  6.5283004993555993e+00  0.0000000000000000e+00  1.0489539209966503e+07  2.0959390724867464e+06  -3.3329401386639145e+06  5.8931633442038298e+05  -3.4434151720647151e+06  3.7155158139915543e+05  -2.6485896489737690e+06  -2.2187500141120065e+05  -4.3476117826942913e+06  -2.5877763450584505e+05  -5.1744533914186610e+06  -1.5809491607156871e+06  -4.9246493303143419e+06  -2.2607543776904265e+06  -5.5839888400540408e+06  -2.0650531217197571e+06  -5.6445793274883684e+06  -3.1247369505854971e+06  -4.3979295123547101e+06  -3.1786701770429704e+06  -7.2398995234011915e+06  1.3758166327091525e+05  -1.6526175679942362e+07  2.5868471226805355e+06  -2.3580565687950529e+07  9.4228192480641361e+06  -2.3093561473136920e+07  2.5234750802776776e+06  -1.3981625713780155e+07  5.6135613938401834e+00  -4.1413529570718910e-09  1.4352165705051783e+07  -2.7933151219288167e+06  1.2068181932187183e+06  -3.4434151749293855e+06  1.0210045644880824e+06  -2.4010624332443718e+06  2.2141909941763543e+06  -3.6295152611093698e+06  4.4144632364118379e+06  -3.3830593432821999e+06  5.0604915240165694e+06  -2.7741694405952310e+06  6.5093950818293337e+06  -3.7092930249274578e+06  8.3307855949848033e+06  -4.3016302549675275e+06  8.5382624478522334e+06  -4.0361984268718376e+06  8.9144580498400647e+06  -6.6468138464544499e+06  1.4932503748375170e+07  -1.1048883096927684e+07  2.4701532288297817e+07  -1.5804556139987549e+07  2.9050854795716040e+07  -2.3580573648077939e+07  3.5559756319168709e+07  -2.5255297983822979e+07  4.6754105183981635e+07  4.7984958060572582e+00  0.0000000000000000e+00  8.2493243111955840e+06  -2.5490823779260777e+06  -3.4714335696598152e+06  3.7155159039941756e+05  -2.4010624369559679e+06  1.7000240220161376e+06  -3.7686817660387801e+06  2.4474291310828109e+06  -3.6202609505556975e+06  1.1597131482743027e+06  -3.6484579262882140e+06  1.1378393796537870e+06  -4.7814556843099892e+06  1.1016872189781985e+06  -4.8118292164405826e+06  -6.3284993623642658e+04  -3.7745590386648923e+06  -1.0485950489787853e+06  -4.1334553512539314e+06  6.6611427234576188e+05  -9.5507766440330334e+06  1.6391148618372658e+06  -1.4330661559312871e+07  4.4278065396314897e+06  -1.5804575211719709e+07  2.5868618594273296e+06  -1.4293068734107185e+07  -7.3343450999369414e+05  -4.1910238903202135e+06  4.0755859060491595e+00  -6.2382127090859422e-09  1.3679546398081239e+07  -6.2906166319672316e+06  3.0971957445787964e+06  -2.6485896327581760e+06  2.2141909977032878e+06  -3.7686817700214139e+06  2.9465957530623139e+06  -3.4035734640763537e+06  2.9204147340646358e+06  -3.4128827402328341e+06  4.8620556995586911e+06  -4.2054213678573435e+06  6.0515826127006607e+06  -4.0276516496159853e+06  6.5772883296109373e+06  -4.0798639755306877e+06  7.0769678206955381e+06  -4.8234147760952394e+06  9.1539326965988595e+06  -7.6551063558055488e+06  1.5412664937858999e+07  -9.9869031260896157e+06  1.8848228564045619e+07  -1.4330694688501427e+07  2.4701559593589354e+07  -1.6526181177309293e+07  2.2995775405029889e+07  -1.5439485308807984e+07  2.6850513040299855e+07  3.4376086140489437e+00  0.0000000000000000e+00  5.9078725360223167e+06  -5.0265868233168991e+06  -1.6065667625378489e+06  -2.2187497737349750e+05  -3.6295152975645936e+06  2.4474291466008285e+06  -3.4035734706180152e+06  2.4719516615576311e+06  -3.5157239443062628e+06  3.4989727985979957e+06  -4.2621960614732690e+06  2.7441908993083388e+06  -4.0074901149958055e+06  2.2230395865616803e+06  -4.4103160195776150e+06  1.8728271905356236e+06  -3.8155565375771020e+06  1.1085806137285070e+06  -4.9895691546033742e+06  1.9971998667676565e+06  -9.0230318110520542e+06  2.6980104356542202e+06  -9.9869648701969888e+06  1.6391645083783795e+06  -1.1048894073155385e+07  1.3756997667412355e+05  -8.6154627076318227e+06  -5.4626061618028227e+06  9.5192403114417987e+05  2.8776356698719976e+00  4.3252498104183564e-09  1.2818737744675975e+07  -7.0039907476246469e+06  5.3046822614531014e+06  -4.3476117595685218e+06  4.4144632526233299e+06  -3.6202609474075278e+06  2.9204147390282322e+06  -3.5157239477827013e+06  3.9960348949091416e+06  -4.1708003679876570e+06  3.9217752231179373e+06  -3.8141240140017248e+06  5.3216060219906541e+06  -4.7815940544339102e+06  6.3564409518661015e+06  -4.3733926168638626e+06  5.6638793140722448e+06  -4.4519348002429521e+06  8.8695883060767073e+06  -6.9554071085149627e+06  1.2663897226469802e+07  -9.0231373613599632e+06  1.5412751631491214e+07  -9.5507918686801828e+06  1.4932478379911611e+07  -7.2398770897289105e+06  1.3747908899003901e+07  -8.8973624622635040e+06  1.8386467268123168e+07  2.3890336205090179e+00  0.0000000000000000e+00  4.2775356235844782e+06  -5.8904733780198349e+06  -1.6910138391033411e+06  -2.5877757308830167e+05  -3.3830594152248190e+06  1.1597131719782229e+06  -3.4128827726587560e+06  3.4989728170771319e+06  -4.1708003789347317e+06  3.4137853593982887e+06  -3.7438858158209752e+06  4.3589591197240725e+06  -5.0769238274562843e+06  3.7853531121649439e+06  -4.0643002010063455e+06  1.8738412092184725e+06  -2.8354171894084704e+06  2.2549418305342598e+06  -6.5095298132192921e+06  3.5658369906784836e+06  -6.9555826362381941e+06  1.9973451439400155e+06  -7.6551305532903979e+06  6.6606519769237458e+05  -6.6467722007000102e+06  -3.1786771132798837e+06  -4.2444715311791785e+06  -7.4428827384209624e+06  1.4763334952449563e+06  1.9654638821610535e+00  0.0000000000000000e+00  1.2516293514601270e+07  -7.7166922532884749e+06  7.7108075491497731e+06  -5.1744533612704668e+06  5.0604915316219907e+06  -3.6484579084763089e+06  4.8620557232282748e+06  -4.2621960720956940e+06  3.9217752354706055e+06  -3.7438858200991699e+06  4.9018184130386496e+06  -5.3309438870866122e+06  4.7240386165171741e+06  -3.7843015317231668e+06  4.4694416232850617e+06  -3.5212343889270136e+06  5.1850876387348026e+06  -5.6073253634422962e+06  9.3229773017750476e+06  -6.5098024674344724e+06  8.8698190274824537e+06  -4.9896024634714425e+06  9.1538435163841490e+06  -4.1333780235869526e+06  8.9144452264052089e+06  -4.3979502318545775e+06  1.1303231093757834e+07  -7.7778054528667396e+06  1.5840432213922663e+07  1.6008826161694407e+00  0.0000000000000000e+00  2.6428893288780153e+06  -5.6254671505228421e+06  -1.9869971465070590e+06  -1.5809490817319381e+06  -2.7741695410902151e+06  1.1378394363701174e+06  -4.2054214525611298e+06  2.7441909371269043e+06  -3.8141240509581440e+06  4.3589591434886111e+06  -5.3309439067555927e+06  4.1953986007827427e+06  -3.3070879497579332e+06  3.7113085466195201e+06  -4.4261150359394867e+06  3.1739594497146271e+06  -4.1476221508290577e+06  3.8431259322307832e+06  -5.6077222800610634e+06  2.2552858368302966e+06  -4.4519798374092579e+06  1.1084298847574666e+06  -4.8232847008653013e+06  -1.0486154112435267e+06  -4.0362395552358329e+06  -3.1247055895284209e+06  -3.4899032167018787e+06  -6.9027349047971359e+06  9.4480033731425891e+05  1.2895408530858665e+00  -2.1691723491978884e-06  1.3037649548113277e+07  -8.0097722838646946e+06  8.5878669436869100e+06  -4.9246492771048751e+06  6.5093950991135566e+06  -4.7814556796102645e+06  6.0515826538500590e+06  -4.0074901163768237e+06  5.3216060592286186e+06  -5.0769238600557419e+06  4.7240386480442835e+06  -3.3070879568669721e+06  4.2312929811097896e+06  -5.5544670491115376e+06  4.7908830284783291e+06  -2.8766925149372844e+06  4.0790186318964614e+06  -4.1481536318818573e+06  5.1855636462712651e+06  -2.8354719632367869e+06  5.6636427732277513e+06  -3.8153499391162507e+06  7.0769381564813908e+06  -3.7746311974562430e+06  8.5383187392163184e+06  -5.6445832795927022e+06  1.0865724564125009e+07  -7.6651394696617788e+06  1.4472306559221847e+07  1.0259844306373329e+00  0.0000000000000000e+00  1.4186393030272436e+06  -6.0380684054343700e+06  -1.7919503242215989e+06  -2.2607542703829207e+06  -3.7092931933032768e+06  1.1016873247793887e+06  -4.0276517790969480e+06  2.2230396589796385e+06  -4.7815941650601421e+06  3.7853531824871143e+06  -3.7843015853137979e+06  3.7113085745391599e+06  -5.5544670850428343e+06  4.7713241660357276e+06  -1.7445702008717698e+06  5.3686913483203424e+05  -2.8773430757365092e+06  3.1745648489961489e+06  -3.5212972054568436e+06  1.8735005795411903e+06  -4.3730913908541473e+06  1.8727889419480963e+06  -4.0799852836172106e+06  -6.3190208774103674e+04  -4.3016370097449915e+06  -2.0650858404448309e+06  -2.6562724365603025e+06  -6.6256609158706283e+06  9.9009849285409448e+05  8.0505400613316713e-01  -7.4976577064942699e-09  1.3624987813847851e+07  -7.5723060948357573e+06  9.4085058460133430e+06  -5.5839887951066354e+06  8.3307856533331834e+06  -4.8118292186610131e+06  6.5772883905509273e+06  -4.4103160489390651e+06  6.3564410444589863e+06  -4.0643002474931329e+06  4.4694416918485248e+06  -4.4261151146951439e+06  4.7908831318037901e+06  -1.7445702444490013e+06  -1.7818090324936184e+05  -1.7452911542083803e+06  4.7915848628691332e+06  -4.4261818336984124e+06  4.4689955475573987e+06  -4.0638960053711915e+06  6.3563966338460129e+06  -4.4105016582059199e+06  6.5774348950209748e+06  -4.8118361392168645e+06  8.3307274905301267e+06  -5.5839536768101985e+06  9.4085092144985404e+06  -7.5723187292704284e+06  1.3624992048668152e+07  6.2188505646502057e-01  0.0000000000000000e+00  9.9010402366804378e+05  -6.6256625425593685e+06  -2.6562911232240917e+06  -2.0650529435551057e+06  -4.3016305101421680e+06  -6.3284839756260051e+04  -4.0798641880023596e+06  1.8728273508799330e+06  -4.3733928247345751e+06  1.8738413461549217e+06  -3.5212345666100234e+06  3.1739596097538918e+06  -2.8766926409465568e+06  5.3686913480713009e+05  -1.7452911106323036e+06  4.7720618381985603e+06  -5.5545354849322122e+06  3.7107820716586635e+06  -3.7838084091669377e+06  3.7853066825997457e+06  -4.7818540825367616e+06  2.2232473639415377e+06  -4.0276576318358304e+06  1.1015932927992442e+06  -3.7092359458203507e+06  -2.2607471344260834e+06  -1.7919764484602476e+06  -6.0380579036369873e+06  1.4186407427323097e+06  4.7190787810686874e-01  -1.1555038643374025e-08  1.4472306381371340e+07  -7.6651491400087029e+06  1.0865741802201072e+07  -5.6445793067674115e+06  8.5382625486162715e+06  -3.7745590624021720e+06  7.0769679582889043e+06  -3.8155566304653995e+06  5.6638794687234536e+06  -2.8354172749402276e+06  5.1850877820353461e+06  -4.1476222244281056e+06  4.0790186318198559e+06  -2.8773429496389786e+06  4.7915847595570888e+06  -5.5545354489910742e+06  4.2307361991540221e+06  -3.3065422762960056e+06  4.7239927125567235e+06  -5.0772507702666717e+06  5.3218735774560636e+06  -4.0074909321334222e+06  6.0514436280234605e+06  -4.7813691586347381e+06  6.5094080280219186e+06  -4.9246934524970399e+06  8.5878855695102885e+06  -8.0097660313253617e+06  1.3037642610532334e+07  3.5084758090265156e-01  0.0000000000000000e+00  9.4479778421126574e+05  -6.9027273430958511e+06  -3.4899000886655166e+06  -3.1247366941123460e+06  -4.0361987835143539e+06  -1.0485948128676489e+06  -4.8234151075819992e+06  1.1085808304284248e+06  -4.4519350390483225e+06  2.2549419505768535e+06  -5.6073255065950025e+06  3.8431259321895707e+06  -4.1481535581562635e+06  3.1745646888584537e+06  -4.4261817550018420e+06  3.7107820437204605e+06  -3.3065422691988614e+06  4.1953533182570925e+06  -5.3313115283089904e+06  4.3592710316514140e+06  -3.8141185595771661e+06  2.7440056084805098e+06  -4.2053042975888755e+06  1.1378612453345316e+06  -2.7742389085191744e+06  -1.5809192113195059e+06  -1.9869853496664576e+06  -5.6254836629161797e+06  2.6428926526018558e+06  2.5472411912807247e-01  4.1149278689273980e-09  1.5840435054681093e+07  -7.7778044572313474e+06  1.1303215380316172e+07  -4.3979294769715806e+06  8.9144581837759875e+06  -4.1334553785149124e+06  9.1539328452962898e+06  -4.9895691654276578e+06  8.8695883670300450e+06  -6.5095297644108012e+06  9.3229773016768880e+06  -5.6077221368722040e+06  5.1855635029110014e+06  -3.5212970276451758e+06  4.4689954790940862e+06  -3.7838083555219369e+06  4.7239926810535304e+06  -5.3313115086322082e+06  4.9021467348309429e+06  -3.7438753988191811e+06  3.9215541433764473e+06  -4.2620520614287537e+06  4.8620878808819465e+06  -3.6485548114188332e+06  5.0605338765777964e+06  -5.1744323398846844e+06  7.7107777149238642e+06  -7.7166842730623065e+06  1.2516298040750153e+07  1.7985222936699988e-01  0.0000000000000000e+00  1.4763353215634876e+06  -7.4428902142913789e+06  -4.2444606770511875e+06  -3.1786698915586942e+06  -6.6468142676313957e+06  6.6611449249918410e+05  -7.6551066460886477e+06  1.9971999468561125e+06  -6.9554072427547919e+06  3.5658369903000155e+06  -6.5098025158074088e+06  2.2552857167704799e+06  -2.8354718777655433e+06  1.8735004424088201e+06  -4.0638959590656739e+06  3.7853066121625947e+06  -5.0772507377298800e+06  4.3592710078600124e+06  -3.7438753945471025e+06  3.4135507386791781e+06  -4.1706410112995286e+06  3.4990138473141901e+06  -3.4130050781407063e+06  1.1597675557226744e+06  -3.3830284885032098e+06  -2.5882263293881796e+05  -1.6910024487414288e+06  -5.8904618213628596e+06  4.2775271208258057e+06  1.2284149263506586e-01  0.0000000000000000e+00  1.8386465100074634e+07  -8.8973586327714492e+06  1.3747912717212012e+07  -7.2398994023898803e+06  1.4932503869157132e+07  -9.5507765747910421e+06  1.5412665001017947e+07  -9.0230316853648070e+06  1.2663897226261016e+07  -6.9555825012991223e+06  8.8698189659059923e+06  -4.4519795985574648e+06  5.6636426188127035e+06  -4.3730911826405590e+06  6.3563965415649451e+06  -4.7818539716758952e+06  5.3218735403558090e+06  -3.8141185225463877e+06  3.9215541310531269e+06  -4.1706410003494276e+06  3.9960794413823686e+06  -3.5158612489203238e+06  2.9204776629290753e+06  -3.6202199549403102e+06  4.4144026740124831e+06  -4.3475960476042479e+06  5.3047017923669629e+06  -7.0040075524658039e+06  1.2818739725301441e+07  8.0596567640654232e-02  0.0000000000000000e+00  9.5192688156742218e+05  -5.4626047681468315e+06  -8.6154722870605960e+06  1.3758194087832281e+05  -1.1048883552233346e+07  1.6391149968707301e+06  -9.9869033720952328e+06  2.6980104349524402e+06  -9.0231374867550880e+06  1.9973450635623557e+06  -4.9896024519643690e+06  1.1084296678735700e+06  -3.8153498467258569e+06  1.8727887809789921e+06  -4.4105016293885130e+06  2.2232472910867562e+06  -4.0074909310458661e+06  2.7440055704946253e+06  -4.2620520508927684e+06  3.4990138288048273e+06  -3.5158612454468105e+06  2.4720176977356388e+06  -3.4035265086650685e+06  2.4473569949825276e+06  -3.6294969607939734e+06  -2.2184676363956821e+05  -1.6065933654499489e+06  -5.0265836261367472e+06  5.9078784775466537e+06  5.0315875383322980e-02  1.1029025241772487e-08  2.6850514036928218e+07  -1.5439490127602797e+07  2.2995780388283815e+07  -1.6526175496610632e+07  2.4701532422851704e+07  -1.4330661364506520e+07  1.8848228562496606e+07  -9.9869646212402154e+06  1.5412751567573138e+07  -7.6551302633103840e+06  9.1538433670647368e+06  -4.8232843688573437e+06  7.0769380198398726e+06  -4.0799850700333626e+06  6.5774348350798991e+06  -4.0276575015627868e+06  6.0514435874564461e+06  -4.2053042125157686e+06  4.8620878574176822e+06  -3.4130050456150472e+06  2.9204776579972310e+06  -3.4035265021205656e+06  2.9465192514481978e+06  -3.7686617321897862e+06  2.2142257269947720e+06  -2.6486236352239866e+06  3.0971987684497349e+06  -6.2906029346107356e+06  1.3679539165948737e+07  2.9494242381679272e-02  0.0000000000000000e+00  -4.1910232487320914e+06  -7.3343329602479667e+05  -1.4293064022554385e+07  2.5868473609162048e+06  -1.5804556623919636e+07  4.4278065404684041e+06  -1.4330694883778254e+07  1.6391643698355264e+06  -9.5507919359318931e+06  6.6606497853276774e+05  -4.1333779960329304e+06  -1.0486156485946150e+06  -3.7746311756143831e+06  -6.3190364700050981e+04  -4.8118361388852783e+06  1.1015931854715652e+06  -4.7813691644787602e+06  1.1378611878398780e+06  -3.6485548297043219e+06  1.1597675317644619e+06  -3.6202199582046568e+06  2.4473569794299817e+06  -3.7686617282102476e+06  1.7000612531798766e+06  -2.4011011188379647e+06  3.7155452638891112e+05  -3.4714143088531331e+06  -2.5490949318901370e+06  8.2493235527154552e+06  1.5920257445504512e-02  0.0000000000000000e+00  4.6754105604486004e+07  -2.5255296479639851e+07  3.5559749039282195e+07  -2.3580565288899686e+07  2.9050854787020817e+07  -1.5804574714739349e+07  2.4701559463619713e+07  -1.1048893617087403e+07  1.4932478254586833e+07  -6.6467717812291654e+06  8.9144450931483172e+06  -4.0362391956398850e+06  8.5383186423805673e+06  -4.3016367504901364e+06  8.3307274358736547e+06  -3.7092357744021709e+06  6.5094080130521879e+06  -2.7742388063922348e+06  5.0605338700316409e+06  -3.3830284159395867e+06  4.4144026581220916e+06  -3.6294969242002829e+06  2.2142257235066318e+06  -2.4011011151228212e+06  1.0210073785994322e+06  -3.4433921415463346e+06  1.2068015601474133e+06  -2.7933161628968799e+06  1.4352171790928861e+07  7.6775932896916048e-03  0.0000000000000000e+00  -1.3981622432524905e+07  2.5234714191753333e+06  -2.3093555856086310e+07  9.4228192359853759e+06  -2.3580574091700461e+07  2.5868615950120590e+06  -1