<?xml version="1.0"?>
<VTKFile type="UnstructuredGrid"  version="0.1"  >
<UnstructuredGrid>
<Piece  NumberOfPoints="961" NumberOfCells="1800">
<Points>
<DataArray  type="Float64"  NumberOfComponents="3"  format="ascii">-1 -1 0  -0.9333333333333333 -1 0  -0.8666666666666667 -1 0  -0.8 -1 0  -0.7333333333333334 -1 0  -0.6666666666666667 -1 0  -0.6 -1 0  -0.5333333333333333 -1 0  -0.4666666666666667 -1 0  -0.4 -1 0  -0.3333333333333334 -1 0  -0.2666666666666667 -1 0  -0.2 -1 0  -0.1333333333333333 -1 0  -0.06666666666666665 -1 0  0 -1 0  0.06666666666666665 -1 0  0.1333333333333333 -1 0  0.2 -1 0  0.2666666666666666 -1 0  0.3333333333333333 -1 0  0.3999999999999999 -1 0  0.4666666666666666 -1 0  0.5333333333333334 -1 0  0.6000000000000001 -1 0  0.6666666666666667 -1 0  0.7333333333333334 -1 0  0.8 -1 0  0.8666666666666667 -1 0  0.9333333333333333 -1 0  1 -1 0  -1 -0.9333333333333333 0  -0.9333333333333333 -0.9333333333333333 0  -0.8666666666666667 -0.9333333333333333 0  -0.8 -0.9333333333333333 0  -0.7333333333333334 -0.9333333333333333 0  -0.6666666666666667 -0.9333333333333333 0  -0.6 -0.9333333333333333 0  -0.5333333333333333 -0.9333333333333333 0  -0.4666666666666667 -0.9333333333333333 0  -0.4 -0.9333333333333333 0  -0.3333333333333334 -0.9333333333333333 0  -0.2666666666666667 -0.9333333333333333 0  -0.2 -0.9333333333333333 0  -0.1333333333333333 -0.9333333333333333 0  -0.06666666666666665 -0.9333333333333333 0  0 -0.9333333333333333 0  0.06666666666666665 -0.9333333333333333 0  0.1333333333333333 -0.9333333333333333 0  0.2 -0.9333333333333333 0  0.2666666666666666 -0.9333333333333333 0  0.3333333333333333 -0.9333333333333333 0  0.3999999999999999 -0.9333333333333333 0  0.4666666666666666 -0.9333333333333333 0  0.5333333333333334 -0.9333333333333333 0  0.6000000000000001 -0.9333333333333333 0  0.6666666666666667 -0.9333333333333333 0  0.7333333333333334 -0.9333333333333333 0  0.8 -0.9333333333333333 0  0.8666666666666667 -0.9333333333333333 0  0.9333333333333333 -0.9333333333333333 0  1 -0.9333333333333333 0  -1 -0.8666666666666667 0  -0.9333333333333333 -0.8666666666666667 0  -0.8666666666666667 -0.8666666666666667 0  -0.8 -0.8666666666666667 0  -0.7333333333333334 -0.8666666666666667 0  -0.6666666666666667 -0.8666666666666667 0  -0.6 -0.8666666666666667 0  -0.5333333333333333 -0.8666666666666667 0  -0.4666666666666667 -0.8666666666666667 0  -0.4 -0.8666666666666667 0  -0.3333333333333334 -0.8666666666666667 0  -0.2666666666666667 -0.8666666666666667 0  -0.2 -0.8666666666666667 0  -0.1333333333333333 -0.8666666666666667 0  -0.06666666666666665 -0.8666666666666667 0  0 -0.8666666666666667 0  0.06666666666666665 -0.8666666666666667 0  0.1333333333333333 -0.8666666666666667 0  0.2 -0.8666666666666667 0  0.2666666666666666 -0.8666666666666667 0  0.3333333333333333 -0.8666666666666667 0  0.3999999999999999 -0.8666666666666667 0  0.4666666666666666 -0.8666666666666667 0  0.5333333333333334 -0.8666666666666667 0  0.6000000000000001 -0.8666666666666667 0  0.6666666666666667 -0.8666666666666667 0  0.7333333333333334 -0.8666666666666667 0  0.8 -0.8666666666666667 0  0.8666666666666667 -0.8666666666666667 0  0.9333333333333333 -0.8666666666666667 0  1 -0.8666666666666667 0  -1 -0.8 0  -0.9333333333333333 -0.8 0  -0.8666666666666667 -0.8 0  -0.8 -0.8 0  -0.7333333333333334 -0.8 0  -0.6666666666666667 -0.8 0  -0.6 -0.8 0  -0.5333333333333333 -0.8 0  -0.4666666666666667 -0.8 0  -0.4 -0.8 0  -0.3333333333333334 -0.8 0  -0.2666666666666667 -0.8 0  -0.2 -0.8 0  -0.1333333333333333 -0.8 0  -0.06666666666666665 -0.8 0  0 -0.8 0  0.06666666666666665 -0.8 0  0.1333333333333333 -0.8 0  0.2 -0.8 0  0.2666666666666666 -0.8 0  0.3333333333333333 -0.8 0  0.3999999999999999 -0.8 0  0.4666666666666666 -0.8 0  0.5333333333333334 -0.8 0  0.6000000000000001 -0.8 0  0.6666666666666667 -0.8 0  0.7333333333333334 -0.8 0  0.8 -0.8 0  0.8666666666666667 -0.8 0  0.9333333333333333 -0.8 0  1 -0.8 0  -1 -0.7333333333333334 0  -0.9333333333333333 -0.7333333333333334 0  -0.8666666666666667 -0.7333333333333334 0  -0.8 -0.7333333333333334 0  -0.7333333333333334 -0.7333333333333334 0  -0.6666666666666667 -0.7333333333333334 0  -0.6 -0.7333333333333334 0  -0.5333333333333333 -0.7333333333333334 0  -0.4666666666666667 -0.7333333333333334 0  -0.4 -0.7333333333333334 0  -0.3333333333333334 -0.7333333333333334 0  -0.2666666666666667 -0.7333333333333334 0  -0.2 -0.7333333333333334 0  -0.1333333333333333 -0.7333333333333334 0  -0.06666666666666665 -0.7333333333333334 0  0 -0.7333333333333334 0  0.06666666666666665 -0.7333333333333334 0  0.1333333333333333 -0.7333333333333334 0  0.2 -0.7333333333333334 0  0.2666666666666666 -0.7333333333333334 0  0.3333333333333333 -0.7333333333333334 0  0.3999999999999999 -0.7333333333333334 0  0.4666666666666666 -0.7333333333333334 0  0.5333333333333334 -0.7333333333333334 0  0.6000000000000001 -0.7333333333333334 0  0.6666666666666667 -0.7333333333333334 0  0.7333333333333334 -0.7333333333333334 0  0.8 -0.7333333333333334 0  0.8666666666666667 -0.7333333333333334 0  0.9333333333333333 -0.7333333333333334 0  1 -0.7333333333333334 0  -1 -0.6666666666666667 0  -0.9333333333333333 -0.6666666666666667 0  -0.8666666666666667 -0.6666666666666667 0  -0.8 -0.6666666666666667 0  -0.7333333333333334 -0.6666666666666667 0  -0.6666666666666667 -0.6666666666666667 0  -0.6 -0.6666666666666667 0  -0.5333333333333333 -0.6666666666666667 0  -0.4666666666666667 -0.6666666666666667 0  -0.4 -0.6666666666666667 0  -0.3333333333333334 -0.6666666666666667 0  -0.2666666666666667 -0.6666666666666667 0  -0.2 -0.6666666666666667 0  -0.1333333333333333 -0.6666666666666667 0  -0.06666666666666665 -0.6666666666666667 0  0 -0.6666666666666667 0  0.06666666666666665 -0.6666666666666667 0  0.1333333333333333 -0.6666666666666667 0  0.2 -0.6666666666666667 0  0.2666666666666666 -0.6666666666666667 0  0.3333333333333333 -0.6666666666666667 0  0.3999999999999999 -0.6666666666666667 0  0.4666666666666666 -0.6666666666666667 0  0.5333333333333334 -0.6666666666666667 0  0.6000000000000001 -0.6666666666666667 0  0.6666666666666667 -0.6666666666666667 0  0.7333333333333334 -0.6666666666666667 0  0.8 -0.6666666666666667 0  0.8666666666666667 -0.6666666666666667 0  0.9333333333333333 -0.6666666666666667 0  1 -0.6666666666666667 0  -1 -0.6 0  -0.9333333333333333 -0.6 0  -0.8666666666666667 -0.6 0  -0.8 -0.6 0  -0.7333333333333334 -0.6 0  -0.6666666666666667 -0.6 0  -0.6 -0.6 0  -0.5333333333333333 -0.6 0  -0.4666666666666667 -0.6 0  -0.4 -0.6 0  -0.3333333333333334 -0.6 0  -0.2666666666666667 -0.6 0  -0.2 -0.6 0  -0.1333333333333333 -0.6 0  -0.06666666666666665 -0.6 0  0 -0.6 0  0.06666666666666665 -0.6 0  0.1333333333333333 -0.6 0  0.2 -0.6 0  0.2666666666666666 -0.6 0  0.3333333333333333 -0.6 0  0.3999999999999999 -0.6 0  0.4666666666666666 -0.6 0  0.5333333333333334 -0.6 0  0.6000000000000001 -0.6 0  0.6666666666666667 -0.6 0  0.7333333333333334 -0.6 0  0.8 -0.6 0  0.8666666666666667 -0.6 0  0.9333333333333333 -0.6 0  1 -0.6 0  -1 -0.5333333333333333 0  -0.9333333333333333 -0.5333333333333333 0  -0.8666666666666667 -0.5333333333333333 0  -0.8 -0.5333333333333333 0  -0.7333333333333334 -0.5333333333333333 0  -0.6666666666666667 -0.5333333333333333 0  -0.6 -0.5333333333333333 0  -0.5333333333333333 -0.5333333333333333 0  -0.4666666666666667 -0.5333333333333333 0  -0.4 -0.5333333333333333 0  -0.3333333333333334 -0.5333333333333333 0  -0.2666666666666667 -0.5333333333333333 0  -0.2 -0.5333333333333333 0  -0.1333333333333333 -0.5333333333333333 0  -0.06666666666666665 -0.5333333333333333 0  0 -0.5333333333333333 0  0.06666666666666665 -0.5333333333333333 0  0.1333333333333333 -0.5333333333333333 0  0.2 -0.5333333333333333 0  0.2666666666666666 -0.5333333333333333 0  0.3333333333333333 -0.5333333333333333 0  0.3999999999999999 -0.5333333333333333 0  0.4666666666666666 -0.5333333333333333 0  0.5333333333333334 -0.5333333333333333 0  0.6000000000000001 -0.5333333333333333 0  0.6666666666666667 -0.5333333333333333 0  0.7333333333333334 -0.5333333333333333 0  0.8 -0.5333333333333333 0  0.8666666666666667 -0.5333333333333333 0  0.9333333333333333 -0.5333333333333333 0  1 -0.5333333333333333 0  -1 -0.4666666666666667 0  -0.9333333333333333 -0.4666666666666667 0  -0.8666666666666667 -0.4666666666666667 0  -0.8 -0.4666666666666667 0  -0.7333333333333334 -0.4666666666666667 0  -0.6666666666666667 -0.4666666666666667 0  -0.6 -0.4666666666666667 0  -0.5333333333333333 -0.4666666666666667 0  -0.4666666666666667 -0.4666666666666667 0  -0.4 -0.4666666666666667 0  -0.3333333333333334 -0.4666666666666667 0  -0.2666666666666667 -0.4666666666666667 0  -0.2 -0.4666666666666667 0  -0.1333333333333333 -0.4666666666666667 0  -0.06666666666666665 -0.4666666666666667 0  0 -0.4666666666666667 0  0.06666666666666665 -0.4666666666666667 0  0.1333333333333333 -0.4666666666666667 0  0.2 -0.4666666666666667 0  0.2666666666666666 -0.4666666666666667 0  0.3333333333333333 -0.4666666666666667 0  0.3999999999999999 -0.4666666666666667 0  0.4666666666666666 -0.4666666666666667 0  0.5333333333333334 -0.4666666666666667 0  0.6000000000000001 -0.4666666666666667 0  0.6666666666666667 -0.4666666666666667 0  0.7333333333333334 -0.4666666666666667 0  0.8 -0.4666666666666667 0  0.8666666666666667 -0.4666666666666667 0  0.9333333333333333 -0.4666666666666667 0  1 -0.4666666666666667 0  -1 -0.4 0  -0.9333333333333333 -0.4 0  -0.8666666666666667 -0.4 0  -0.8 -0.4 0  -0.7333333333333334 -0.4 0  -0.6666666666666667 -0.4 0  -0.6 -0.4 0  -0.5333333333333333 -0.4 0  -0.4666666666666667 -0.4 0  -0.4 -0.4 0  -0.3333333333333334 -0.4 0  -0.2666666666666667 -0.4 0  -0.2 -0.4 0  -0.1333333333333333 -0.4 0  -0.06666666666666665 -0.4 0  0 -0.4 0  0.06666666666666665 -0.4 0  0.1333333333333333 -0.4 0  0.2 -0.4 0  0.2666666666666666 -0.4 0  0.3333333333333333 -0.4 0  0.3999999999999999 -0.4 0  0.4666666666666666 -0.4 0  0.5333333333333334 -0.4 0  0.6000000000000001 -0.4 0  0.6666666666666667 -0.4 0  0.7333333333333334 -0.4 0 
[...]
<PointData  Scalars="f_24"> 
<DataArray  type="Float64"  Name="f_24"  format="ascii">0.0000000000000000e+00  0.0000000000000000e+00  0.0000000000000000e+00  0.0000000000000000e+00  0.0000000000000000e+00  0.0000000000000000e+00  0.0000000000000000e+00  0.0000000000000000e+00  0.0000000000000000e+00  0.0000000000000000e+00  0.0000000000000000e+00  0.0000000000000000e+00  0.0000000000000000e+00  0.0000000000000000e+00  0.0000000000000000e+00  0.0000000000000000e+00  0.0000000000000000e+00  0.0000000000000000e+00  0.0000000000000000e+00  0.0000000000000000e+00  0.0000000000000000e+00  0.0000000000000000e+00  0.0000000000000000e+00  0.0000000000000000e+00  0.0000000000000000e+00  1.7077670663478588e-07  0.0000000000000000e+00  -4.8949924547723003e-08  0.0000000000000000e+00  0.0000000000000000e+00  1.2398663967377296e+01  0.0000000000000000e+00  1.1319028477242142e+07  1.2367105336618261e+07  1.7997073926841833e+07  1.2967792272041729e+07  1.7761679331362091e+07  1.0140521852434585e+07  1.6893184557636250e+07  7.1976894216194879e+06  1.5800030600632280e+07  5.1498636324736811e+06  1.5410529807053562e+07  3.1035674398031039e+06  1.6053532374064276e+07  1.5738893787002089e+06  1.6783420575687967e+07  1.0400401643083834e+06  1.7841449186514433e+07  9.8799735415287036e+05  1.9553035558188204e+07  1.6598336421349735e+06  2.2738138496192183e+07  1.0224615270377342e+06  3.3305000951935519e+07  -5.3615222823913628e+06  5.8135752477488600e+07  -1.7526576015333697e+07  9.6356855748353839e+07  -1.0770246959130608e+07  2.0959011209606445e+08  1.0826344999395779e+01  0.0000000000000000e+00  1.2367105317037528e+07  1.3597706031119449e+07  5.4752524626275394e+06  2.4423522424179693e+06  -3.6653499449107819e+06  -3.3667430680016857e+06  -8.0271406409361353e+06  -6.4449385723809768e+06  -8.8985805550892614e+06  -7.4993829432281815e+06  -9.7634560305412915e+06  -7.1475023575452343e+06  -1.0110562573071055e+07  -7.6485634460660806e+06  -9.5583080793767385e+06  -8.3799663843410723e+06  -9.6795722180632427e+06  -8.7366795992508661e+06  -9.8364207873520311e+06  -9.4298140991200600e+06  -1.1253151645151120e+07  -6.9830138336783638e+06  -1.9421868596394416e+07  -1.0991714628353510e+06  -3.1650431596372880e+07  2.9777082883991869e+06  -2.7365011577326000e+07  -1.6866985905145358e+07  -1.0770254763803251e+07  9.4085348134068596e+00  -9.0683627389428463e-09  1.7997073918421309e+07  5.4752524660578817e+06  1.9836966021602207e+06  -4.3403253871595133e+06  1.3306073911376605e+06  -4.4687951548533877e+06  3.7555689653374567e+06  -2.0630704761912907e+06  6.5903868595872652e+06  -2.0894407815303290e+06  9.6573927986168098e+06  -2.4021079987265375e+06  1.0792579718873270e+07  -2.1308820940544284e+06  1.1829257439516947e+07  -3.2077209127212097e+06  1.3631389199361943e+07  -4.2740216200742861e+06  1.4135101635044973e+07  -5.2690511589837251e+06  1.7114431903323941e+07  -1.0792067248011498e+07  2.8556589961411741e+07  -1.7946093124130264e+07  4.4144412739158839e+07  -2.8956787984558597e+07  5.2816972810265169e+07  -2.7365011040557127e+07  9.6356857264426485e+07  8.1347635826676079e+00  0.0000000000000000e+00  1.2967792211278515e+07  2.4423522613506792e+06  -4.3403253928417992e+06  5.7372305405131518e+05  -4.3943219107524306e+06  4.3119660766165721e+05  -3.2587534024821585e+06  -1.6865110253240040e+05  -5.2548250671287812e+06  -1.1765017823982607e+05  -6.2123296699072886e+06  -1.7137963597081904e+06  -5.8672347320041349e+06  -2.5409416394149694e+06  -6.6799629243943077e+06  -2.2978114168716636e+06  -6.7656983892287398e+06  -3.6393262507162956e+06  -5.2468119156496823e+06  -3.7579887669397402e+06  -8.8601382838841565e+06  2.7918874718521402e+05  -2.0549372157209504e+07  3.1959526859513340e+06  -2.9479940025933325e+07  1.1588870203349289e+07  -2.8956796195604552e+07  2.9777138301212797e+06  -1.7526582549490456e+07  6.9949282285879111e+00  -1.5698722916747017e-09  1.7761679314148221e+07  -3.6653499089151523e+06  1.3306073974100759e+06  -4.3943219143285127e+06  1.2669031873973811e+06  -2.8972032313148389e+06  2.9382963510761396e+06  -4.2815823824574258e+06  5.7812611621024329e+06  -3.9137362777385553e+06  6.6163245100702206e+06  -3.1448602209793497e+06  8.4212541205821615e+06  -4.3143739592166878e+06  1.0687137550599433e+07  -5.0534804116802393e+06  1.0947338066687495e+07  -4.7204314817906348e+06  1.1414759865882186e+07  -7.9850359004029175e+06  1.8882914226303581e+07  -1.3530551845109450e+07  3.0956715796113674e+07  -1.9598726940919053e+07  3.6197678253203943e+07  -2.9479949944856063e+07  4.4144422082206190e+07  -3.1650432607578777e+07  5.8135751959419958e+07  5.9792939657490827e+00  0.0000000000000000e+00  1.0140521764073044e+07  -3.3667430141270407e+06  -4.4687952053282056e+06  4.3119661887481721e+05  -2.8972032359376661e+06  2.3191388236128115e+06  -4.4255724394383980e+06  3.3538160459648999e+06  -4.2006100726181511e+06  1.7453345368836236e+06  -4.2635033613580912e+06  1.6821969394569292e+06  -5.7087604493010947e+06  1.6122079676843153e+06  -5.7599392726989901e+06  1.6003096026842829e+05  -4.4552692981377300e+06  -1.0442588369804918e+06  -4.8708925643212907e+06  1.1259860843684792e+06  -1.1595856831056667e+07  2.3406354530120650e+06  -1.7591914217344519e+07  5.7148221429591244e+06  -1.9598750705762606e+07  3.1959710490743984e+06  -1.7946100117935151e+07  -1.0991722556533560e+06  -5.3615245062456578e+06  5.0784927610377411e+00  -6.2382127090859422e-09  1.6893184548442569e+07  -8.0271405877403049e+06  3.7555689603019459e+06  -3.2587533822671692e+06  2.9382963554808493e+06  -4.4255724443928991e+06  3.9796254761641012e+06  -3.9370589842545125e+06  3.9156426052655517e+06  -4.0119500179320159e+06  6.2647786173421135e+06  -5.0621450337004811e+06  7.6987031380693000e+06  -4.8726440365473311e+06  8.3379978908208171e+06  -4.9376936632526014e+06  8.9763022945282236e+06  -5.8326356275694072e+06  1.1611682881345704e+07  -9.3001934720713589e+06  1.9478248893734179e+07  -1.2145606097456252e+07  2.3788059255996902e+07  -1.7591955498863980e+07  3.0956749820587795e+07  -2.0549379007355843e+07  2.8556583904000740e+07  -1.9421862039568420e+07  3.3304999895235486e+07  4.2835241028331223e+00  0.0000000000000000e+00  7.1976893047927665e+06  -6.4449384962892924e+06  -2.0630705592521145e+06  -1.6865107255999948e+05  -4.2815824278687928e+06  3.3538160653128237e+06  -3.9370589924048977e+06  3.3466914064767817e+06  -4.1650618146575131e+06  4.5276705611622222e+06  -5.1818081845868118e+06  3.5209737660633032e+06  -4.9099553769079056e+06  2.8438704253900419e+06  -5.4247177867482174e+06  2.4078259052889817e+06  -4.6701662555987881e+06  1.4835521435827015e+06  -6.0877908779897233e+06  2.6559326638864935e+06  -1.1029203209955983e+07  3.6248969387754975e+06  -1.2145683035355143e+07  2.3406973163994192e+06  -1.3530565522351975e+07  2.7917418477270129e+05  -1.0792056148424454e+07  -6.9830150812359676e+06  1.0224570147194567e+06  3.5857548473357244e+00  2.8114123767719316e-08  1.5800030601301197e+07  -8.8985804774272833e+06  6.5903868421015237e+06  -5.2548250382856596e+06  5.7812611823186995e+06  -4.2006100686831763e+06  3.9156426114518787e+06  -4.1650618189872317e+06  5.1341196980578229e+06  -5.0909156309329877e+06  4.9590822679938572e+06  -4.7020409291081028e+06  6.6690551106498633e+06  -5.9267427792977821e+06  7.9501933625913998e+06  -5.4177503656829391e+06  7.0962542634493820e+06  -5.4957506866906723e+06  1.1125674294017376e+07  -8.5597735360878892e+06  1.5934918710413905e+07  -1.1029334733738042e+07  1.9478356920648042e+07  -1.1595875802145759e+07  1.8882882615221672e+07  -8.8601103298285529e+06  1.7114427259781782e+07  -1.1253156130238347e+07  2.2738141453441679e+07  2.9769193081582608e+00  0.0000000000000000e+00  5.1498634923736397e+06  -7.4993828518908070e+06  -2.0894409168642419e+06  -1.1765010168132454e+05  -3.9137363673714814e+06  1.7453345664308025e+06  -4.0119500583375981e+06  4.5276705841900073e+06  -5.0909156445757607e+06  4.3174703781403601e+06  -4.6275973954381170e+06  5.4544119828857193e+06  -6.3110602766027581e+06  4.7283303008607030e+06  -5.0538100219116723e+06  2.3467246032231031e+06  -3.5174198519741790e+06  2.8334509806218175e+06  -8.0726709630050212e+06  4.5081794113015635e+06  -8.5599922570987772e+06  2.6561136903917650e+06  -9.3002236239948329e+06  1.1259249335741405e+06  -7.9849840066227857e+06  -3.7579974100520466e+06  -5.2690653597421600e+06  -9.4298043681253437e+06  1.6598306738023474e+06  2.4491188083708249e+00  -3.9598199541539497e-09  1.5410529821398159e+07  -9.7634559468377512e+06  9.6573927997984402e+06  -6.2123296323137982e+06  6.6163245195558444e+06  -4.2635033391544232e+06  6.2647786468346324e+06  -5.1818081978209922e+06  4.9590822833845364e+06  -4.6275974007677324e+06  6.1267786959949099e+06  -6.6332004276008550e+06  5.8917400140706021e+06  -4.7120446588038569e+06  5.5722681691214135e+06  -4.3841246465314375e+06  6.4665985502722645e+06  -6.9769400795376543e+06  1.1636843022475913e+07  -8.0730107110762596e+06  1.1125961790593173e+07  -6.0878323833906753e+06  1.1611571755954146e+07  -4.8707962081169784e+06  1.1414743886870649e+07  -5.2468377337620771e+06  1.4135121358094249e+07  -9.8364218919151071e+06  1.9553032223525371e+07  1.9948225764105880e+00  0.0000000000000000e+00  3.1035672580728768e+06  -7.1475022298423611e+06  -2.4021081932473527e+06  -1.7137962612679766e+06  -3.1448603462003209e+06  1.6821970101371116e+06  -5.0621451392505830e+06  3.5209738131901626e+06  -4.7020409751609936e+06  5.4544120124988165e+06  -6.6332004521115813e+06  5.2316312317308392e+06  -4.1192448296852051e+06  4.6253702049627267e+06  -5.5145769916330650e+06  3.9558741692860997e+06  -5.1664429239162048e+06  4.7928982212390546e+06  -6.9774346680997713e+06  2.8338796388644399e+06  -5.4958068064489812e+06  1.4833643237235004e+06  -5.8324735438486831e+06  -1.0442842099239080e+06  -4.7204827309084330e+06  -3.6392871724561336e+06  -4.2740260377715640e+06  -8.7366887184937615e+06  9.8800007038236479e+05  1.6068668501720975e+00  3.8125993513364800e-06  1.6053532419578414e+07  -1.0110562486258326e+07  1.0792579723541934e+07  -5.8672346656877175e+06  8.4212541421187967e+06  -5.7087604434381630e+06  7.6987031893416801e+06  -4.9099553786240974e+06  6.6690551570485579e+06  -6.3110603172220699e+06  5.8917400533539718e+06  -4.1192448385395929e+06  5.2728425370405419e+06  -6.9212291541950805e+06  5.9697144846380958e+06  -3.5845386914556497e+06  5.0832572978375955e+06  -5.1671051900895974e+06  6.4671916921863053e+06  -3.5174881043656585e+06  7.0959595154076274e+06  -4.6699088180593615e+06  8.9762653306428548e+06  -4.4553592135273470e+06  1.0947408210032692e+07  -6.7657033138709320e+06  1.3631367804096291e+07  -9.6795600441819970e+06  1.7841449528636415e+07  1.2784553249621222e+00  0.0000000000000000e+00  1.5738891357693162e+06  -7.6485632910137773e+06  -2.1308823366118660e+06  -2.5409415056960089e+06  -4.3143741690303208e+06  1.6122080995156562e+06  -4.8726441978778215e+06  2.8438705156353381e+06  -5.9267429171468215e+06  4.7283303884892277e+06  -4.7120447255868185e+06  4.6253702397584924e+06  -6.9212291989726396e+06  5.9453082144846283e+06  -2.1739719632074558e+06  6.6889471359701536e+05  -3.5853493401307506e+06  3.9566285432446282e+06  -4.3842029207472662e+06  2.3463001525111953e+06  -5.4173750149613163e+06  2.4077782446221337e+06  -4.9378448224368887e+06  1.6014906947119124e+05  -5.0534888286623014e+06  -2.2978521869233330e+06  -3.2076979755340391e+06  -8.3799641609436078e+06  1.0400329512361786e+06  1.0031590639086894e+00  7.4976577064942699e-09  1.6783420652310301e+07  -9.5583079653737731e+06  1.1829257457090983e+07  -6.6799628683894621e+06  1.0687137623295892e+07  -5.7599392754573692e+06  8.3379979667663472e+06  -5.4247178233374823e+06  7.9501934779695533e+06  -5.0538100798384491e+06  5.5722682545557600e+06  -5.5145770897631338e+06  5.9697146133825034e+06  -2.1739720175015768e+06  -2.2225924164677144e+05  -2.1748703263850752e+06  5.9705890241385279e+06  -5.5146602267653821e+06  5.5717123245351873e+06  -5.0533063631361118e+06  7.9501381389385425e+06  -5.4249491067199670e+06  8.3381805225673979e+06  -5.7599478990045069e+06  1.0687065147982681e+07  -6.6799191082951911e+06  1.1829261654479813e+07  -9.5583237088498380e+06  1.6783425929218329e+07  7.7491649796108097e-01  0.0000000000000000e+00  1.0400398430537836e+06  -8.3799661879219431e+06  -3.2077212605522210e+06  -2.2978111948738159e+06  -5.0534807296601590e+06  1.6003115199709227e+05  -4.9376939280071342e+06  2.4078261051004673e+06  -5.4177506247055335e+06  2.3467247738555362e+06  -4.3841248679346005e+06  3.9558743687077328e+06  -3.5845388484757058e+06  6.6889471356738778e+05  -2.1748702720855935e+06  5.9462274106062744e+06  -6.9213144304828215e+06  4.6247141767709600e+06  -4.7114301902685119e+06  4.7282724460639907e+06  -5.9270667942675836e+06  2.8441293319542441e+06  -4.8726514908519257e+06  1.6120909284655394e+06  -4.3143028342710771e+06  -2.5409326137441886e+06  -2.1309148894179342e+06  -7.6485502049694406e+06  1.5738909297534199e+06  5.8803342588983487e-01  -7.7033590955826834e-09  1.7841449307023752e+07  -9.6795720941749681e+06  1.3631389284064004e+07  -6.7656983634247156e+06  1.0947338192229144e+07  -4.4552693277202649e+06  8.9763024659984075e+06  -4.6701663713389449e+06  7.0962544561536517e+06  -3.5174199585521948e+06  6.4665987288354607e+06  -5.1664430156261362e+06  5.0832572977472693e+06  -3.5853491830069292e+06  5.9705888954050243e+06  -6.9213143856977364e+06  5.2721487440015879e+06  -4.1185648786810040e+06  5.8916828142121229e+06  -6.3114676724288752e+06  6.6693885052889325e+06  -4.9099563951200806e+06  7.6985299524937337e+06  -5.7086526316641159e+06  8.4212702525319438e+06  -5.8672897116151247e+06  1.0792602932747794e+07  -1.0110554695114749e+07  1.6053523774820553e+07  4.3718301003712995e-01  0.0000000000000000e+00  9.8799688901958091e+05  -8.7366792960333973e+06  -4.2740221399997408e+06  -3.6393259311538283e+06  -4.7204319262212897e+06  -1.0442585427708878e+06  -5.8326360406226842e+06  1.4835524136071808e+06  -5.4957509842554471e+06  2.8334511302067321e+06  -6.9769402579157837e+06  4.7928982211859692e+06  -5.1671050982224885e+06  3.9566283437021137e+06  -5.5146601287023071e+06  4.6247141419572169e+06  -4.1185648698373833e+06  5.2315748062293176e+06  -6.6336585367784500e+06  5.4548006490828665e+06  -4.7020341324770916e+06  3.5207428794763978e+06  -5.0619991551626874e+06  1.6822241857826449e+06  -3.1449467833355572e+06  -1.7137590404396846e+06  -2.4020934934775643e+06  -7.1475228055536412e+06  3.1035713996895743e+06  3.1740579756485882e-01  -4.1149278689273980e-09  1.9553035763334159e+07  -9.8364206512761880e+06  1.4135101777943388e+07  -5.2468118715853672e+06  1.1414760032750554e+07  -4.8708925983032528e+06  1.1611683066639153e+07  -6.0877908914616117e+06  1.1125674369975079e+07  -8.0726709021905931e+06  1.1636843022355324e+07  -6.9774344896761039e+06  6.4671915135511560e+06  -4.3842026991809588e+06  5.5717122392279962e+06  -4.7114301234218637e+06  5.8916827749582464e+06  -6.6336585122595867e+06  6.1271878101416351e+06  -4.6275844150484912e+06  4.9588067856710264e+06  -5.1816287494782889e+06  6.2648187177383453e+06  -4.2636240876561906e+06  6.6163772846206436e+06  -6.2123034380531507e+06  9.6573556240622960e+06  -9.7634460028638244e+06  1.5410535461328337e+07  2.2410967795848277e-01  0.0000000000000000e+00  1.6598329495356274e+06  -9.4298136836343855e+06  -5.2690518346666759e+06  -3.7579884112316347e+06  -7.9850364252484925e+06  1.1259863586767979e+06  -9.3001938337864801e+06  2.6559327636839789e+06  -8.5597737033648230e+06  4.5081794108316181e+06  -8.0730107713529002e+06  2.8338794892591424e+06  -3.5174879978636694e+06  2.3462999816326005e+06  -5.0533063054382829e+06  4.7282723582921904e+06  -6.3114676318867048e+06  5.4548006194362538e+06  -4.6275844097250616e+06  4.3171780227227276e+06  -5.0907170602744482e+06  4.5277217110134847e+06  -4.0121024603520352e+06  1.7454023327493304e+06  -3.9136978303010589e+06  -1.1770624971198726e+05  -2.0894267235983363e+06  -7.4993684514087411e+06  5.1498528972848263e+06  1.5306992552317655e-01  0.0000000000000000e+00  2.2738138751893163e+07  -1.1253151358398518e+07  1.7114432017571125e+07  -8.8601381331228428e+06  1.8882914376789778e+07  -1.1595856744801862e+07  1.9478248972437076e+07  -1.1029203053345481e+07  1.5934918710176207e+07  -8.5599920889542084e+06  1.1125961713861000e+07  -5.4958065088285040e+06  7.0959593229975197e+06  -5.4173747555041881e+06  7.9501380239517409e+06  -5.9270666561250379e+06  6.6693884590619449e+06  -4.7020340863316152e+06  4.9588067703173384e+06  -5.0907170466275457e+06  5.1341752063806960e+06  -4.1652329067372819e+06  3.9157210194606702e+06  -4.2005589889226276e+06  5.7811856967220800e+06  -5.2548054599719634e+06  6.5904111791181099e+06  -8.8986014175494760e+06  1.5800033069312047e+07  1.0042905557924404e-01  0.0000000000000000e+00  1.0224605665654842e+06  -6.9830133446348635e+06  -1.0792068085127436e+07  2.7918909308435675e+05  -1.3530552412469264e+07  2.3406356212547659e+06  -1.2145606404007411e+07  3.6248969378972258e+06  -1.1029334889996961e+07  2.6561135902317571e+06  -6.0878323690433232e+06  1.4833640534660374e+06  -4.6699087029428324e+06  2.4077780440381090e+06  -5.4249490708236117e+06  2.8441292411693186e+06  -4.9099563937672349e+06  3.5207428321410799e+06  -5.1816287363518989e+06  4.5277216879480183e+06  -4.1652329024115442e+06  3.3467736926223552e+06  -3.9370004742089557e+06  3.3537261588604543e+06  -4.2815595788435796e+06  -1.6861591608244163e+05  -2.0631037085217985e+06  -6.4449345123567358e+06  7.1976967083893865e+06  6.2697441494293127e-02  0.0000000000000000e+00  3.3305001137117848e+07  -1.9421868044157393e+07  2.8556590113523941e+07  -2.0549371928769849e+07  3.0956715963765699e+07  -1.7591913974603202e+07  2.3788059254062444e+07  -1.2145682725138159e+07  1.9478356841010969e+07  -9.3002232626562603e+06  1.1611571569897557e+07  -5.8324731301436098e+06  8.9762651603941787e+06  -4.9378445562913539e+06  8.3381804478866430e+06  -4.8726513285075445e+06  7.6985299019468026e+06  -5.0619990491546728e+06  6.2648186885020109e+06  -4.0121024198223301e+06  3.9157210133139626e+06  -3.9370004660546770e+06  3.9795301492825137e+06  -4.4255474757138733e+06  2.9383396308438545e+06  -3.2587957519491990e+06  3.7555727282768637e+06  -8.0271235197827574e+06  1.6893175536649309e+07  3.6752089118114645e-02  0.0000000000000000e+00  -5.3615237067726981e+06  -1.0991707429637252e+06  -1.7946094246970225e+07  3.1959529828068917e+06  -1.9598727543932296e+07  5.7148221439978871e+06  -1.7591955742179420e+07  2.3406971437704931e+06  -1.1595875885949416e+07  1.1259246604865238e+06  -4.8707961737893252e+06  -1.0442845056831281e+06  -4.4553591863193363e+06  1.6014887516231640e+05  -5.7599478985946747e+06  1.6120907947107158e+06  -5.7086526389541626e+06  1.6822241141305903e+06  -4.2636241104500266e+06  1.7454023028851065e+06  -4.2005589930023206e+06  3.3537261394694620e+06  -4.4255474707635911e+06  2.3191852165011740e+06  -2.8972514365317780e+06  4.3120027734237030e+05  -4.4687712048844304e+06  -3.3667586573298983e+06  1.0140520818950243e+07  1.9837862347803655e-02  0.0000000000000000e+00  5.8135752483398899e+07  -3.1650430733240407e+07  4.4144413010900915e+07  -2.9479939528662290e+07  3.6197678242361106e+07  -1.9598750086480103e+07  3.0956749658651970e+07  -1.3530564954029541e+07  1.8882882459097601e+07  -7.9849834839056209e+06  1.1414743720850881e+07  -4.7204822828099793e+06  1.0947408089382265e+07  -5.0534885056000287e+06  1.0687065079884315e+07  -4.3143026206687810e+06  8.4212702338783257e+06  -3.1449466560832527e+06  6.6163772764548520e+06  -3.9136977398944078e+06  5.7811856769060576e+06  -4.2815595332599087e+06  2.9383396264874721e+06  -2.8972514319046577e+06  1.2669066939947924e+06  -4.3942932129646977e+06  1.3305866713266757e+06  -3.6653512060400862e+06  1.7761686897617277e+07  9.5668703451985224e-03  0.0000000000000000e+00  -1.7526578460766874e+07  2.9777092680792972e+06  -2.8956789196304884e+07  1.1588870188275086e+07  -2.9479950497634448e+07  3.1959707195762629e+06  -2.0549