<?xml version="1.0"?>
<VTKFile type="UnstructuredGrid"  version="0.1"  >
<UnstructuredGrid>
<Piece  NumberOfPoints="961" NumberOfCells="1800">
<Points>
<DataArray  type="Float64"  NumberOfComponents="3"  format="ascii">-1 -1 0  -0.9333333333333333 -1 0  -0.8666666666666667 -1 0  -0.8 -1 0  -0.7333333333333334 -1 0  -0.6666666666666667 -1 0  -0.6 -1 0  -0.5333333333333333 -1 0  -0.4666666666666667 -1 0  -0.4 -1 0  -0.3333333333333334 -1 0  -0.2666666666666667 -1 0  -0.2 -1 0  -0.1333333333333333 -1 0  -0.06666666666666665 -1 0  0 -1 0  0.06666666666666665 -1 0  0.1333333333333333 -1 0  0.2 -1 0  0.2666666666666666 -1 0  0.3333333333333333 -1 0  0.3999999999999999 -1 0  0.4666666666666666 -1 0  0.5333333333333334 -1 0  0.6000000000000001 -1 0  0.6666666666666667 -1 0  0.7333333333333334 -1 0  0.8 -1 0  0.8666666666666667 -1 0  0.9333333333333333 -1 0  1 -1 0  -1 -0.9333333333333333 0  -0.9333333333333333 -0.9333333333333333 0  -0.8666666666666667 -0.9333333333333333 0  -0.8 -0.9333333333333333 0  -0.7333333333333334 -0.9333333333333333 0  -0.6666666666666667 -0.9333333333333333 0  -0.6 -0.9333333333333333 0  -0.5333333333333333 -0.9333333333333333 0  -0.4666666666666667 -0.9333333333333333 0  -0.4 -0.9333333333333333 0  -0.3333333333333334 -0.9333333333333333 0  -0.2666666666666667 -0.9333333333333333 0  -0.2 -0.9333333333333333 0  -0.1333333333333333 -0.9333333333333333 0  -0.06666666666666665 -0.9333333333333333 0  0 -0.9333333333333333 0  0.06666666666666665 -0.9333333333333333 0  0.1333333333333333 -0.9333333333333333 0  0.2 -0.9333333333333333 0  0.2666666666666666 -0.9333333333333333 0  0.3333333333333333 -0.9333333333333333 0  0.3999999999999999 -0.9333333333333333 0  0.4666666666666666 -0.9333333333333333 0  0.5333333333333334 -0.9333333333333333 0  0.6000000000000001 -0.9333333333333333 0  0.6666666666666667 -0.9333333333333333 0  0.7333333333333334 -0.9333333333333333 0  0.8 -0.9333333333333333 0  0.8666666666666667 -0.9333333333333333 0  0.9333333333333333 -0.9333333333333333 0  1 -0.9333333333333333 0  -1 -0.8666666666666667 0  -0.9333333333333333 -0.8666666666666667 0  -0.8666666666666667 -0.8666666666666667 0  -0.8 -0.8666666666666667 0  -0.7333333333333334 -0.8666666666666667 0  -0.6666666666666667 -0.8666666666666667 0  -0.6 -0.8666666666666667 0  -0.5333333333333333 -0.8666666666666667 0  -0.4666666666666667 -0.8666666666666667 0  -0.4 -0.8666666666666667 0  -0.3333333333333334 -0.8666666666666667 0  -0.2666666666666667 -0.8666666666666667 0  -0.2 -0.8666666666666667 0  -0.1333333333333333 -0.8666666666666667 0  -0.06666666666666665 -0.8666666666666667 0  0 -0.8666666666666667 0  0.06666666666666665 -0.8666666666666667 0  0.1333333333333333 -0.8666666666666667 0  0.2 -0.8666666666666667 0  0.2666666666666666 -0.8666666666666667 0  0.3333333333333333 -0.8666666666666667 0  0.3999999999999999 -0.8666666666666667 0  0.4666666666666666 -0.8666666666666667 0  0.5333333333333334 -0.8666666666666667 0  0.6000000000000001 -0.8666666666666667 0  0.6666666666666667 -0.8666666666666667 0  0.7333333333333334 -0.8666666666666667 0  0.8 -0.8666666666666667 0  0.8666666666666667 -0.8666666666666667 0  0.9333333333333333 -0.8666666666666667 0  1 -0.8666666666666667 0  -1 -0.8 0  -0.9333333333333333 -0.8 0  -0.8666666666666667 -0.8 0  -0.8 -0.8 0  -0.7333333333333334 -0.8 0  -0.6666666666666667 -0.8 0  -0.6 -0.8 0  -0.5333333333333333 -0.8 0  -0.4666666666666667 -0.8 0  -0.4 -0.8 0  -0.3333333333333334 -0.8 0  -0.2666666666666667 -0.8 0  -0.2 -0.8 0  -0.1333333333333333 -0.8 0  -0.06666666666666665 -0.8 0  0 -0.8 0  0.06666666666666665 -0.8 0  0.1333333333333333 -0.8 0  0.2 -0.8 0  0.2666666666666666 -0.8 0  0.3333333333333333 -0.8 0  0.3999999999999999 -0.8 0  0.4666666666666666 -0.8 0  0.5333333333333334 -0.8 0  0.6000000000000001 -0.8 0  0.6666666666666667 -0.8 0  0.7333333333333334 -0.8 0  0.8 -0.8 0  0.8666666666666667 -0.8 0  0.9333333333333333 -0.8 0  1 -0.8 0  -1 -0.7333333333333334 0  -0.9333333333333333 -0.7333333333333334 0  -0.8666666666666667 -0.7333333333333334 0  -0.8 -0.7333333333333334 0  -0.7333333333333334 -0.7333333333333334 0  -0.6666666666666667 -0.7333333333333334 0  -0.6 -0.7333333333333334 0  -0.5333333333333333 -0.7333333333333334 0  -0.4666666666666667 -0.7333333333333334 0  -0.4 -0.7333333333333334 0  -0.3333333333333334 -0.7333333333333334 0  -0.2666666666666667 -0.7333333333333334 0  -0.2 -0.7333333333333334 0  -0.1333333333333333 -0.7333333333333334 0  -0.06666666666666665 -0.7333333333333334 0  0 -0.7333333333333334 0  0.06666666666666665 -0.7333333333333334 0  0.1333333333333333 -0.7333333333333334 0  0.2 -0.7333333333333334 0  0.2666666666666666 -0.7333333333333334 0  0.3333333333333333 -0.7333333333333334 0  0.3999999999999999 -0.7333333333333334 0  0.4666666666666666 -0.7333333333333334 0  0.5333333333333334 -0.7333333333333334 0  0.6000000000000001 -0.7333333333333334 0  0.6666666666666667 -0.7333333333333334 0  0.7333333333333334 -0.7333333333333334 0  0.8 -0.7333333333333334 0  0.8666666666666667 -0.7333333333333334 0  0.9333333333333333 -0.7333333333333334 0  1 -0.7333333333333334 0  -1 -0.6666666666666667 0  -0.9333333333333333 -0.6666666666666667 0  -0.8666666666666667 -0.6666666666666667 0  -0.8 -0.6666666666666667 0  -0.7333333333333334 -0.6666666666666667 0  -0.6666666666666667 -0.6666666666666667 0  -0.6 -0.6666666666666667 0  -0.5333333333333333 -0.6666666666666667 0  -0.4666666666666667 -0.6666666666666667 0  -0.4 -0.6666666666666667 0  -0.3333333333333334 -0.6666666666666667 0  -0.2666666666666667 -0.6666666666666667 0  -0.2 -0.6666666666666667 0  -0.1333333333333333 -0.6666666666666667 0  -0.06666666666666665 -0.6666666666666667 0  0 -0.6666666666666667 0  0.06666666666666665 -0.6666666666666667 0  0.1333333333333333 -0.6666666666666667 0  0.2 -0.6666666666666667 0  0.2666666666666666 -0.6666666666666667 0  0.3333333333333333 -0.6666666666666667 0  0.3999999999999999 -0.6666666666666667 0  0.4666666666666666 -0.6666666666666667 0  0.5333333333333334 -0.6666666666666667 0  0.6000000000000001 -0.6666666666666667 0  0.6666666666666667 -0.6666666666666667 0  0.7333333333333334 -0.6666666666666667 0  0.8 -0.6666666666666667 0  0.8666666666666667 -0.6666666666666667 0  0.9333333333333333 -0.6666666666666667 0  1 -0.6666666666666667 0  -1 -0.6 0  -0.9333333333333333 -0.6 0  -0.8666666666666667 -0.6 0  -0.8 -0.6 0  -0.7333333333333334 -0.6 0  -0.6666666666666667 -0.6 0  -0.6 -0.6 0  -0.5333333333333333 -0.6 0  -0.4666666666666667 -0.6 0  -0.4 -0.6 0  -0.3333333333333334 -0.6 0  -0.2666666666666667 -0.6 0  -0.2 -0.6 0  -0.1333333333333333 -0.6 0  -0.06666666666666665 -0.6 0  0 -0.6 0  0.06666666666666665 -0.6 0  0.1333333333333333 -0.6 0  0.2 -0.6 0  0.2666666666666666 -0.6 0  0.3333333333333333 -0.6 0  0.3999999999999999 -0.6 0  0.4666666666666666 -0.6 0  0.5333333333333334 -0.6 0  0.6000000000000001 -0.6 0  0.6666666666666667 -0.6 0  0.7333333333333334 -0.6 0  0.8 -0.6 0  0.8666666666666667 -0.6 0  0.9333333333333333 -0.6 0  1 -0.6 0  -1 -0.5333333333333333 0  -0.9333333333333333 -0.5333333333333333 0  -0.8666666666666667 -0.5333333333333333 0  -0.8 -0.5333333333333333 0  -0.7333333333333334 -0.5333333333333333 0  -0.6666666666666667 -0.5333333333333333 0  -0.6 -0.5333333333333333 0  -0.5333333333333333 -0.5333333333333333 0  -0.4666666666666667 -0.5333333333333333 0  -0.4 -0.5333333333333333 0  -0.3333333333333334 -0.5333333333333333 0  -0.2666666666666667 -0.5333333333333333 0  -0.2 -0.5333333333333333 0  -0.1333333333333333 -0.5333333333333333 0  -0.06666666666666665 -0.5333333333333333 0  0 -0.5333333333333333 0  0.06666666666666665 -0.5333333333333333 0  0.1333333333333333 -0.5333333333333333 0  0.2 -0.5333333333333333 0  0.2666666666666666 -0.5333333333333333 0  0.3333333333333333 -0.5333333333333333 0  0.3999999999999999 -0.5333333333333333 0  0.4666666666666666 -0.5333333333333333 0  0.5333333333333334 -0.5333333333333333 0  0.6000000000000001 -0.5333333333333333 0  0.6666666666666667 -0.5333333333333333 0  0.7333333333333334 -0.5333333333333333 0  0.8 -0.5333333333333333 0  0.8666666666666667 -0.5333333333333333 0  0.9333333333333333 -0.5333333333333333 0  1 -0.5333333333333333 0  -1 -0.4666666666666667 0  -0.9333333333333333 -0.4666666666666667 0  -0.8666666666666667 -0.4666666666666667 0  -0.8 -0.4666666666666667 0  -0.7333333333333334 -0.4666666666666667 0  -0.6666666666666667 -0.4666666666666667 0  -0.6 -0.4666666666666667 0  -0.5333333333333333 -0.4666666666666667 0  -0.4666666666666667 -0.4666666666666667 0  -0.4 -0.4666666666666667 0  -0.3333333333333334 -0.4666666666666667 0  -0.2666666666666667 -0.4666666666666667 0  -0.2 -0.4666666666666667 0  -0.1333333333333333 -0.4666666666666667 0  -0.06666666666666665 -0.4666666666666667 0  0 -0.4666666666666667 0  0.06666666666666665 -0.4666666666666667 0  0.1333333333333333 -0.4666666666666667 0  0.2 -0.4666666666666667 0  0.2666666666666666 -0.4666666666666667 0  0.3333333333333333 -0.4666666666666667 0  0.3999999999999999 -0.4666666666666667 0  0.4666666666666666 -0.4666666666666667 0  0.5333333333333334 -0.4666666666666667 0  0.6000000000000001 -0.4666666666666667 0  0.6666666666666667 -0.4666666666666667 0  0.7333333333333334 -0.4666666666666667 0  0.8 -0.4666666666666667 0  0.8666666666666667 -0.4666666666666667 0  0.9333333333333333 -0.4666666666666667 0  1 -0.4666666666666667 0  -1 -0.4 0  -0.9333333333333333 -0.4 0  -0.8666666666666667 -0.4 0  -0.8 -0.4 0  -0.7333333333333334 -0.4 0  -0.6666666666666667 -0.4 0  -0.6 -0.4 0  -0.5333333333333333 -0.4 0  -0.4666666666666667 -0.4 0  -0.4 -0.4 0  -0.3333333333333334 -0.4 0  -0.2666666666666667 -0.4 0  -0.2 -0.4 0  -0.1333333333333333 -0.4 0  -0.06666666666666665 -0.4 0  0 -0.4 0  0.06666666666666665 -0.4 0  0.1333333333333333 -0.4 0  0.2 -0.4 0  0.2666666666666666 -0.4 0  0.3333333333333333 -0.4 0  0.3999999999999999 -0.4 0  0.4666666666666666 -0.4 0  0.5333333333333334 -0.4 0  0.6000000000000001 -0.4 0  0.6666666666666667 -0.4 0  0.7333333333333334 -0.4 0 
[...]
<PointData  Scalars="f_24"> 
<DataArray  type="Float64"  Name="f_24"  format="ascii">0.0000000000000000e+00  0.0000000000000000e+00  0.0000000000000000e+00  0.0000000000000000e+00  0.0000000000000000e+00  0.0000000000000000e+00  0.0000000000000000e+00  0.0000000000000000e+00  0.0000000000000000e+00  0.0000000000000000e+00  0.0000000000000000e+00  0.0000000000000000e+00  0.0000000000000000e+00  0.0000000000000000e+00  0.0000000000000000e+00  0.0000000000000000e+00  0.0000000000000000e+00  0.0000000000000000e+00  0.0000000000000000e+00  0.0000000000000000e+00  0.0000000000000000e+00  0.0000000000000000e+00  0.0000000000000000e+00  0.0000000000000000e+00  0.0000000000000000e+00  -1.5959473307395580e-07  0.0000000000000000e+00  -5.3844917002495302e-07  0.0000000000000000e+00  0.0000000000000000e+00  1.5219670792011424e+01  0.0000000000000000e+00  1.2802075134300830e+07  1.3330962230830066e+07  1.9598543398181383e+07  1.3084206792422408e+07  1.8622407872004434e+07  9.1987694504753426e+06  1.7296350589921385e+07  5.4795224504373660e+06  1.5910854982714118e+07  2.9881602537915418e+06  1.5466704288283400e+07  5.3117456835709256e+05  1.6292407195775008e+07  -1.3136138263497523e+06  1.7198788831418861e+07  -1.9813250236174425e+06  1.8474308007479995e+07  -2.0964702546624523e+06  2.0530412630898029e+07  -1.3269125952685748e+06  2.4409027428292565e+07  -2.0849775667573211e+06  3.7423473896599755e+07  -9.6941935763555784e+06  6.8149040949648574e+07  -2.4055535268737059e+07  1.1570679972913492e+08  -1.4834115484011441e+07  2.5562768340779245e+08  1.3289609848697076e+01  0.0000000000000000e+00  1.3330962203450454e+07  1.3951760066374324e+07  3.8283904232351631e+06  3.0950428078140446e+05  -6.6891895430118740e+06  -5.8112920631274935e+06  -1.0947806705336310e+07  -8.5402362420764193e+06  -1.1099633030968860e+07  -9.0527764546698667e+06  -1.1536112214418557e+07  -8.1359074387104539e+06  -1.1611276255115531e+07  -8.5101106347052436e+06  -1.0818077802196981e+07  -9.3830507311609015e+06  -1.1065351900118941e+07  -1.0023210482348012e+07  -1.1593953559758890e+07  -1.1351210010163769e+07  -1.3952520607628942e+07  -9.1657778990978282e+06  -2.4889118321385134e+07  -3.0268227537422045e+06  -4.0950009301403545e+07  1.0321926833194329e+06  -3.6307432722517468e+07  -2.3038451904656257e+07  -1.4834125056630326e+07  1.1549212308044684e+01  4.5341813694714232e-09  1.9598543381792989e+07  3.8283904265891616e+06  -9.5249088600365958e+03  -6.8267213189244792e+06  9.4822282663154125e+05  -5.3704838275614232e+06  5.1297343634690708e+06  -1.6088240855260515e+06  9.0654289446529876e+06  -1.4057987276114088e+06  1.2881870643105775e+07  -1.8026831234448557e+06  1.4211364892015785e+07  -1.5338666514109052e+06  1.5434024867458675e+07  -2.8763158767302521e+06  1.7649665296343841e+07  -4.1573477411967237e+06  1.8303357949892350e+07  -5.3644867341418527e+06  2.1886606661543142e+07  -1.2326023341750534e+07  3.5436606979067296e+07  -2.1899513125384364e+07  5.3292346384581156e+07  -3.6993327402021177e+07  6.2186804009426072e+07  -3.6307432065720223e+07  1.1570680159551319e+08  9.9856254435762324e+00  0.0000000000000000e+00  1.3084206710448666e+07  3.0950430328310566e+05  -6.8267213261945564e+06  3.8616234436875168e+05  -4.7790131470374018e+06  1.5352714573589400e+06  -2.7899964193408308e+06  9.2558128256972600e+05  -5.3631370761604356e+06  7.6853279907395900e+05  -6.7659096294082971e+06  -1.3640503662006287e+06  -6.4872474638036136e+06  -2.4499046761813373e+06  -7.5244115054086810e+06  -2.1322353858453971e+06  -7.5859883547686711e+06  -3.6717626401675544e+06  -5.5969635994915804e+06  -3.6477284444345576e+06  -9.8163666828384139e+06  1.4795906147150327e+06  -2.3992236696960814e+07  4.9578008898796290e+06  -3.5504254500331476e+07  1.3903525710451627e+07  -3.6993337477660224e+07  1.0321994859801837e+06  -2.4055543278359886e+07  8.5864497282101393e+00  8.3700616765788802e-09  1.8622407842338953e+07  -6.6891894985966748e+06  9.4822283431432769e+05  -4.7790131507527670e+06  2.5985207230066126e+06  -2.4083445690361601e+06  4.4958331927834088e+06  -4.4947608493953282e+06  7.5548953163034925e+06  -4.3760548158777412e+06  8.3320239320556223e+06  -3.5985778882547477e+06  1.0428451705994176e+07  -5.0947529036836019e+06  1.3165737122490760e+07  -6.0081120787450327e+06  1.3507942231698742e+07  -5.5419859943793481e+06  1.4183524264403332e+07  -9.3537818412019759e+06  2.3561973015090518e+07  -1.5814517424085977e+07  3.8694486379293971e+07  -2.2910811321916495e+07  4.5248833748479918e+07  -3.5504266678587541e+07  5.3292357852640934e+07  -4.0950010544304147e+07  6.8149040321086720e+07  7.3397332137400788e+00  0.0000000000000000e+00  9.1987693338648155e+06  -5.8112919957277533e+06  -5.3704838890926763e+06  1.5352714717763343e+06  -2.4083445749886669e+06  3.6924985375717231e+06  -4.7799797651191615e+06  4.4804906208239775e+06  -4.8399846369205555e+06  2.3162343158685695e+06  -5.0400586429487076e+06  2.1779294780994849e+06  -6.8507072608298603e+06  2.0878047767945002e+06  -6.9288258224384431e+06  3.3327926583543792e+05  -5.3232870972822821e+06  -1.1055211645572959e+06  -5.7984863297624625e+06  1.6040690755329228e+06  -1.3912954567478450e+07  3.3235238737440784e+06  -2.0887144634246930e+07  7.9319195278632836e+06  -2.2910840491595954e+07  4.9578234298178283e+06  -2.1899521708075572e+07  -3.0268237286075400e+06  -9.6941962945171967e+06  6.2339771564078807e+00  0.0000000000000000e+00  1.7296350570279755e+07  -1.0947806637723466e+07  5.1297343572459631e+06  -2.7899963938039304e+06  4.4958331977784578e+06  -4.7799797708498035e+06  5.1815384544920214e+06  -4.5954255890441053e+06  4.8642226866540173e+06  -4.8272462246226072e+06  7.6467891556191379e+06  -6.1645522955508148e+06  9.3673786979456097e+06  -5.9601595617277622e+06  1.0136405916179704e+07  -6.0453432680136869e+06  1.0913421136079406e+07  -7.1156635238720877e+06  1.4175049559944792e+07  -1.1275026268673806e+07  2.3866823138003360e+07  -1.4655656549759928e+07  2.9347375806108430e+07  -2.0887195309728086e+07  3.8694528145018518e+07  -2.3992245107448731e+07  3.5436599542056762e+07  -2.4889110275615595e+07  3.7423472606665261e+07  5.2581332026015657e+00  0.0000000000000000e+00  5.4795223001444871e+06  -8.5402361458752733e+06  -1.6088241873371983e+06  9.2558131993522379e+05  -4.4947609054159727e+06  4.4804906447584210e+06  -4.5954255993218282e+06  4.1703791425667880e+06  -5.0187860063403193e+06  5.5422649942529676e+06  -6.2937527206267407e+06  4.3150901892847354e+06  -5.9704869073461490e+06  3.5055143880168772e+06  -6.5980195159881841e+06  2.9860644179341770e+06  -5.6774681737845512e+06  1.8581229196140298e+06  -7.4343053507178891e+06  3.2978735850078035e+06  -1.3417462718048574e+07  4.6086333750340426e+06  -1.4655750991618900e+07  3.3235998121792851e+06  -1.5814534210987983e+07  1.4795727380107902e+06  -1.2326009714950345e+07  -9.1657794337162264e+06  -2.0849830953870474e+06  4.4016039519178145e+00  3.6764623388556030e-08  1.5910854976695137e+07  -1.1099632932460828e+07  9.0654289224548433e+06  -5.3631370400502188e+06  7.5548953403869225e+06  -4.8399846316572968e+06  4.8642226939171115e+06  -5.0187860113144182e+06  6.2608052241716674e+06  -6.2009422634751694e+06  6.0336462917745467e+06  -5.7464515526926061e+06  8.1167905081516095e+06  -7.2506319655481623e+06  9.6705901563544162e+06  -6.6341966899818992e+06  8.6239700547412615e+06  -6.7131166241330467e+06  1.3568127092187876e+07  -1.0446062444135549e+07  1.9419997405018602e+07  -1.3417624167602893e+07  2.3866955743563920e+07  -1.3912977855698755e+07  2.3561934211212080e+07  -9.8163323691464085e+06  2.1886600960109044e+07  -1.3952526116413999e+07  2.4409031064048216e+07  3.6542428305107575e+00  0.0000000000000000e+00  2.9881600770232608e+06  -9.0527763395318445e+06  -1.4057988940301696e+06  7.6853289353249758e+05  -4.3760549261163101e+06  2.3162343524330598e+06  -4.8272462744070841e+06  5.5422650226356033e+06  -6.2009422804668574e+06  5.2665384152967269e+06  -5.6419541380091654e+06  6.6653893370693503e+06  -7.6918376905627996e+06  5.7897712130045416e+06  -6.1530257548161270e+06  2.8956279086226244e+06  -4.2838209866115162e+06  3.4756477963480093e+06  -9.8695995275424644e+06  5.5472319144449802e+06  -1.0446330928994752e+07  3.2980957993268357e+06  -1.1275063279551299e+07  1.6039940107432031e+06  -9.3537181384224519e+06  -3.6477390546941371e+06  -5.3645041641090978e+06  -1.1351198068603436e+07  -1.3269162309755045e+06  3.0063547243479372e+00  -7.9196399083078995e-09  1.5466704301064916e+07  -1.1536112108837396e+07  1.2881870643179921e+07  -6.7659095824526791e+06  8.3320239428435285e+06  -5.0400586151876431e+06  7.6467891912126485e+06  -6.2937527364280960e+06  6.0336463103781017e+06  -5.6419541442098645e+06  7.4689963203153359e+06  -8.0968852455616975e+06  7.1788806150443526e+06  -5.7612983781391410e+06  6.7829041265198831e+06  -5.3693577657954404e+06  7.8761474395228047e+06  -8.5077685662362017e+06  1.4187984096168783e+07  -9.8700165770564619e+06  1.3568480001154857e+07  -7.4343562996491017e+06  1.4174913149858173e+07  -5.7983680498853112e+06  1.4183504648684314e+07  -5.5969952916534366e+06  1.8303382159203447e+07  -1.1593954918272015e+07  2.0530408541237868e+07  2.4486947126984204e+00  0.0000000000000000e+00  5.3117434289243969e+05  -8.1359072798015941e+06  -1.8026833625471704e+06  -1.3640502448220968e+06  -3.5985780420851749e+06  2.1779295650957911e+06  -6.1645524251331957e+06  4.3150902473093541e+06  -5.7464516093753120e+06  6.6653893734890968e+06  -8.0968852758828402e+06  6.3906904269965738e+06  -5.0259758612062521e+06  5.6580894953874834e+06  -6.7223893316096934e+06  4.8506646767687537e+06  -6.3060391159540806e+06  5.8521060580026219e+06  -8.5083756855526306e+06  3.4761739846684970e+06  -6.7131855116658891e+06  1.8578923654195576e+06  -7.1154645608461127e+06  -1.1055523109673276e+06  -5.5420489027142935e+06  -3.6717146708842409e+06  -4.1573531625897409e+06  -1.0023221678869193e+07  -2.0964669151618816e+06  1.9724693346446804e+00  3.7917964778916878e-06  1.6292407248921787e+07  -1.1611276146848910e+07  1.4211364896235907e+07  -6.4872473816107921e+06  1.0428451731425934e+07  -6.8507072530171517e+06  9.3673787601231169e+06  -5.9704869089907045e+06  8.1167905645647617e+06  -7.6918377399329795e+06  7.1788806629545065e+06  -5.0259758716908330e+06  6.4293047067336049e+06  -8.4507022143483330e+06  7.2733439685759321e+06  -4.3885799924049219e+06  6.2033907699767686e+06  -6.3068520638158517e+06  7.8768755353240017e+06  -4.2839047675105920e+06  8.6236082431075238e+06  -5.6771521619889103e+06  1.0913375760825653e+07  -5.3233974701327393e+06  1.3508028333226368e+07  -7.5859943993730368e+06  1.7649639031978924e+07  -1.1065336957832726e+07  1.8474308429055642e+07  1.5693359558266495e+00  0.0000000000000000e+00  -1.3136141244403122e+06  -8.5101104436265472e+06  -1.5338669491238352e+06  -2.4499045115655744e+06  -5.0947531610686518e+06  2.0878049387493515e+06  -5.9601597596452758e+06  3.5055144989015758e+06  -7.2506321346567702e+06  5.7897713205689332e+06  -5.7612984602065450e+06  5.6580895381008619e+06  -8.4507022695335764e+06  7.2659526345468052e+06  -2.6516218342451416e+06  8.3687559235811397e+05  -4.3895750838382607e+06  4.8515906892914446e+06  -5.3694538489482626e+06  2.8951068844871032e+06  -6.6337359370439565e+06  2.9860059130274295e+06  -6.0455288191964505e+06  3.3342424780705385e+05  -6.0081224102076441e+06  -2.1322854319444625e+06  -2.8762877200562167e+06  -9.3830480027271099e+06  -1.9813338752127208e+06  1.2314028950929146e+00  3.7488288532471349e-09  1.7198788924900521e+07  -1.0818077662133956e+07  1.5434024887730390e+07  -7.5244114359772038e+06  1.3165737210594915e+07  -6.9288258252422195e+06  1.0136406008537350e+07  -6.5980195603086967e+06  9.6705902971328236e+06  -6.1530258253103597e+06  6.7829042307612561e+06  -6.7223894513301533e+06  7.2733441260500038e+06  -2.6516219002487371e+06  -2.8614823853238241e+05  -2.6527245969161466e+06  7.2744174871570179e+06  -6.7224915040882062e+06  6.7822218127292655e+06  -6.1524075004339162e+06  9.6705223670845069e+06  -6.5983034664512584e+06  1.0136630100358354e+07  -6.9288364108645599e+06  1.3165648245326294e+07  -7.5243577193665467e+06  1.5434030040127674e+07  -1.0818096987642638e+07  1.7198795402436510e+07  9.5122942450071402e-01  0.0000000000000000e+00  -1.9813254153335164e+06  -9.3830504908933174e+06  -2.8763163029997060e+06  -2.1322351131740990e+06  -6.0081124684788259e+06  3.3327950115710223e+05  -6.0453435925025120e+06  2.9860646629656306e+06  -6.6341970074165380e+06  2.8956281178341084e+06  -5.3693580371717354e+06  4.8506649211479640e+06  -4.3885801850284729e+06  8.3687559230880742e+05  -2.6527245308899046e+06  7.2670809708128739e+06  -8.4508068933388833e+06  5.6572842043452226e+06  -5.7605441026929356e+06  5.7897001947856154e+06  -7.2510297019363642e+06  3.5058322024188312e+06  -5.9601687119565150e+06  2.0876611083428483e+06  -5.0946655958660515e+06  -2.4498935964805810e+06  -1.5339069085085529e+06  -8.5100943801777624e+06  -1.3136119222817977e+06  7.2182576931593934e-01  0.0000000000000000e+00  1.8474308157023385e+07  -1.1065351749504579e+07  1.7649665399179369e+07  -7.5859883225758169e+06  1.3507942384623921e+07  -5.3232871330500124e+06  1.0913421345410407e+07  -5.6774683151017604e+06  8.6239702902683727e+06  -4.2838211168222856e+06  7.8761476579542393e+06  -6.3060392280766852e+06  6.2033907698840192e+06  -4.3895748910934050e+06  7.2744173297018893e+06  -8.4508068381558843e+06  6.4284530583922034e+06  -5.0251412039275179e+06  7.1788104004735518e+06  -7.6923377786592254e+06  8.1171997578795161e+06  -5.9704881567635676e+06  9.3671661075518001e+06  -6.8505749113629963e+06  1.0428471507358804e+07  -6.4873149518683935e+06  1.4211393386117062e+07  -1.1611266583024317e+07  1.6292396637264157e+07  5.3665310870080640e-01  0.0000000000000000e+00  -2.0964708203656783e+06  -1.0023210112562923e+07  -4.1573483779771114e+06  -3.6717622481532590e+06  -5.5419865386872236e+06  -1.1055208038883873e+06  -7.1156640297098123e+06  1.8581232504666294e+06  -6.7131169885262745e+06  3.4756479795585941e+06  -8.5077687846560404e+06  5.8521060579443034e+06  -6.3068519515148792e+06  4.8515904447570397e+06  -6.7224913844361929e+06  5.6572841616027234e+06  -5.0251411934463177e+06  6.3906211632835669e+06  -8.0974475862816162e+06  6.6658664346318031e+06  -5.7464432098121000e+06  4.3148067703853203e+06  -6.1643732260143748e+06  2.1779629238761961e+06  -3.5986841458438034e+06  -1.3640045553293852e+06  -1.8026653182146510e+06  -8.1359325369997602e+06  5.3117942682778172e+05  3.8962357227549255e-01  0.0000000000000000e+00  2.0530412886440732e+07  -1.1593953395359004e+07  1.8303358124079462e+07  -5.5969635451846635e+06  1.4183524468161289e+07  -5.7984863712514527e+06  1.4175049786517663e+07  -7.4343053672652207e+06  1.3568127185137166e+07  -9.8695994531311113e+06  1.4187984096016206e+07  -8.5083754670722485e+06  7.8768753168113334e+06  -5.3694535773737179e+06  6.7822217086442709e+06  -5.7605440205465043e+06  7.1788103526023068e+06  -8.0974475559560377e+06  7.4694985181769272e+06  -5.6419382039234210e+06  6.0333081300275484e+06  -6.2935324590943996e+06  7.6468383792534526e+06  -5.0402068369994583e+06  8.3320887132793069e+06  -6.7658774283431582e+06  1.2881825009035569e+07  -1.1536099902358757e+07  1.5466711224218495e+07  2.7510024699486341e-01  0.0000000000000000e+00  -1.3269134374597683e+06  -1.1351209503621483e+07  -5.3644875617434513e+06  -3.6477280084143551e+06  -9.3537824835989159e+06  1.6040694116010144e+06  -1.1275026711323265e+07  3.2978737072623363e+06  -1.0446062648813723e+07  5.5472319138680045e+06  -9.8700166508054063e+06  3.4761738014409752e+06  -4.2839046374009205e+06  2.8951066749752737e+06  -6.1524074302185690e+06  5.7897000870445604e+06  -7.6923377293833680e+06  6.6658663981673699e+06  -5.6419381977250380e+06  5.2661795416904883e+06  -6.2006985132593773e+06  5.5423277820929578e+06  -4.8274333516975399e+06  2.3163175372857414e+06  -4.3760076209010342e+06  7.6846397041656729e+05  -1.4057814714427246e+06  -9.0527586625811756e+06  2.9881470712838322e+06  1.8789717027174607e-01  0.0000000000000000e+00  2.4409027747831032e+07  -1.3952520258863322e+07  2.1886606800413784e+07  -9.8163664983852170e+06  2.3561973199332450e+07  -1.3912954462325472e+07  2.3866823234432057e+07  -1.3417462526620785e+07  1.9419997404733099e+07  -1.0446330723262411e+07  1.3568479907245139e+07  -6.7131851472139489e+06  8.6236080079426654e+06  -6.6337356190755656e+06  9.6705222267802861e+06  -7.2510295324700233e+06  8.1171997016761741e+06  -5.7464431530149765e+06  6.0333081114688907e+06  -6.2006984962637322e+06  6.2608733620305071e+06  -5.0189960258208625e+06  4.8643189417130603e+06  -4.8399219299743325e+06  7.5548026799229998e+06  -5.3631130071816435e+06  9.0654587967541479e+06  -1.1099658636983724e+07  1.5910858006242404e+07  1.2327896754307602e-01  0.0000000000000000e+00  -2.0849787354120091e+06  -9.1657773019960932e+06  -1.2326024367552128e+07  1.4795910383360491e+06  -1.5814518118276853e+07  3.3235240798448385e+06  -1.4655656924715448e+07  4.6086333739587450e+06  -1.3417624358598711e+07  3.2980956766353305e+06  -7.4343562820254266e+06  1.8578920342787218e+06  -5.6771520214468222e+06  2.9860056670410363e+06  -6.5983034229870997e+06  3.5058320908653270e+06  -5.9704881555700125e+06  4.3148067121047201e+06  -6.2935324434267692e+06  5.5423277536642300e+06  -5.0189960208505914e+06  4.1704801508715232e+06  -4.5953537667661151e+06  4.4803802823325088e+06  -4.4947328576685088e+06  9.2562447539257631e+05  -1.6088648788961873e+06  -8.5402312554989979e+06  5.4795313882403653e+06  7.6962680943307202e-02  0.0000000000000000e+00  3.7423474131105691e+07  -2.4889117646395124e+07  3.5436607164397269e+07  -2.3992236418298982e+07  3.8694486584913231e+07  -2.0887144337649267e+07  2.9347375803732004e+07  -1.4655750612156508e+07  2.3866955645993676e+07  -1.1275062837362781e+07  1.4174912922356857e+07  -7.1154640542138983e+06  1.0913375552998338e+07  -6.0455284929998359e+06  1.0136630009548884e+07  -5.9601685127927624e+06  9.3671660462631192e+06  -6.1643730958643742e+06  7.6468383439739468e+06  -4.8274333017608235e+06  4.8643189344986016e+06  -4.5953537564836964e+06  5.1814214383551190e+06  -4.7799491211800454e+06  4.4958863193703257e+06  -2.7900484036505665e+06  5.1297389825305669e+06  -1.0947785686379688e+07  1.7296339508081239e+07  4.5114110582246181e-02  0.0000000000000000e+00  -9.6941953131393008e+06  -3.0268218717580843e+06  -2.1899514501306236e+07  4.9578012530058455e+06  -2.2910812059854239e+07  7.9319195291258823e+06  -2.0887195607014686e+07  3.3235996006955295e+06  -1.3912977957834220e+07  1.6039936761822158e+06  -5.7983680079696449e+06  -1.1055526735344559e+06  -5.3233974372709040e+06  3.3342400931780494e+05  -6.9288364109362746e+06  2.0876609440330756e+06  -6.8505749209266724e+06  2.1779628356944094e+06  -5.0402068654855555e+06  2.3163175003325064e+06  -4.8399219354152791e+06  4.4803802583451439e+06  -4.7799491154544922e+06  3.6925554860021742e+06  -2.4084037424221924e+06  1.5352759626379772e+06  -5.3704544279479962e+06  -5.8113111981488569e+06  9.1987681736987848e+06  2.4351473267218256e-02  0.0000000000000000e+00  6.8149040964264542e+07  -4.0950008243486501e+07  5.3292346717365466e+07  -3.5504253892425127e+07  4.5248833735151216e+07  -2.2910839733658344e+07  3.8694527946400948e+07  -1.5814533515611764e+07  2.3561934020051356e+07  -9.3537174986385722e+06  1.4183504445978805e+07  -5.5420483539035805e+06  1.3508028186305800e+07  -6.0081220142359640e+06  1.3165648162871674e+07  -5.0946653338337801e+06  1.0428471485469697e+07  -3.5986839895153232e+06  8.3320887041124329e+06  -4.3760075097120693e+06  7.5548026563305128e+06  -4.4947328014363004e+06  4.4958863144345582e+06  -2.4084037364639221e+06  2.5985250274455165e+06  -4.7789779191144807e+06  9.4819739252990915e+05  -6.6891910908539360e+06  1.8622417151238408e+07  1.1743573141984114e-02  0.0000000000000000e+00  -2.4055538259312112e+07  1.0321938859223631e+06  -3.6993328885813437e+07  1.3903525691914437e+07  -3.5504267354583584e+07  4.9578230265902793e+06  -