<?xml version="1.0"?>
<VTKFile type="UnstructuredGrid"  version="0.1"  >
<UnstructuredGrid>
<Piece  NumberOfPoints="961" NumberOfCells="1800">
<Points>
<DataArray  type="Float64"  NumberOfComponents="3"  format="ascii">-1 -1 0  -0.9333333333333333 -1 0  -0.8666666666666667 -1 0  -0.8 -1 0  -0.7333333333333334 -1 0  -0.6666666666666667 -1 0  -0.6 -1 0  -0.5333333333333333 -1 0  -0.4666666666666667 -1 0  -0.4 -1 0  -0.3333333333333334 -1 0  -0.2666666666666667 -1 0  -0.2 -1 0  -0.1333333333333333 -1 0  -0.06666666666666665 -1 0  0 -1 0  0.06666666666666665 -1 0  0.1333333333333333 -1 0  0.2 -1 0  0.2666666666666666 -1 0  0.3333333333333333 -1 0  0.3999999999999999 -1 0  0.4666666666666666 -1 0  0.5333333333333334 -1 0  0.6000000000000001 -1 0  0.6666666666666667 -1 0  0.7333333333333334 -1 0  0.8 -1 0  0.8666666666666667 -1 0  0.9333333333333333 -1 0  1 -1 0  -1 -0.9333333333333333 0  -0.9333333333333333 -0.9333333333333333 0  -0.8666666666666667 -0.9333333333333333 0  -0.8 -0.9333333333333333 0  -0.7333333333333334 -0.9333333333333333 0  -0.6666666666666667 -0.9333333333333333 0  -0.6 -0.9333333333333333 0  -0.5333333333333333 -0.9333333333333333 0  -0.4666666666666667 -0.9333333333333333 0  -0.4 -0.9333333333333333 0  -0.3333333333333334 -0.9333333333333333 0  -0.2666666666666667 -0.9333333333333333 0  -0.2 -0.9333333333333333 0  -0.1333333333333333 -0.9333333333333333 0  -0.06666666666666665 -0.9333333333333333 0  0 -0.9333333333333333 0  0.06666666666666665 -0.9333333333333333 0  0.1333333333333333 -0.9333333333333333 0  0.2 -0.9333333333333333 0  0.2666666666666666 -0.9333333333333333 0  0.3333333333333333 -0.9333333333333333 0  0.3999999999999999 -0.9333333333333333 0  0.4666666666666666 -0.9333333333333333 0  0.5333333333333334 -0.9333333333333333 0  0.6000000000000001 -0.9333333333333333 0  0.6666666666666667 -0.9333333333333333 0  0.7333333333333334 -0.9333333333333333 0  0.8 -0.9333333333333333 0  0.8666666666666667 -0.9333333333333333 0  0.9333333333333333 -0.9333333333333333 0  1 -0.9333333333333333 0  -1 -0.8666666666666667 0  -0.9333333333333333 -0.8666666666666667 0  -0.8666666666666667 -0.8666666666666667 0  -0.8 -0.8666666666666667 0  -0.7333333333333334 -0.8666666666666667 0  -0.6666666666666667 -0.8666666666666667 0  -0.6 -0.8666666666666667 0  -0.5333333333333333 -0.8666666666666667 0  -0.4666666666666667 -0.8666666666666667 0  -0.4 -0.8666666666666667 0  -0.3333333333333334 -0.8666666666666667 0  -0.2666666666666667 -0.8666666666666667 0  -0.2 -0.8666666666666667 0  -0.1333333333333333 -0.8666666666666667 0  -0.06666666666666665 -0.8666666666666667 0  0 -0.8666666666666667 0  0.06666666666666665 -0.8666666666666667 0  0.1333333333333333 -0.8666666666666667 0  0.2 -0.8666666666666667 0  0.2666666666666666 -0.8666666666666667 0  0.3333333333333333 -0.8666666666666667 0  0.3999999999999999 -0.8666666666666667 0  0.4666666666666666 -0.8666666666666667 0  0.5333333333333334 -0.8666666666666667 0  0.6000000000000001 -0.8666666666666667 0  0.6666666666666667 -0.8666666666666667 0  0.7333333333333334 -0.8666666666666667 0  0.8 -0.8666666666666667 0  0.8666666666666667 -0.8666666666666667 0  0.9333333333333333 -0.8666666666666667 0  1 -0.8666666666666667 0  -1 -0.8 0  -0.9333333333333333 -0.8 0  -0.8666666666666667 -0.8 0  -0.8 -0.8 0  -0.7333333333333334 -0.8 0  -0.6666666666666667 -0.8 0  -0.6 -0.8 0  -0.5333333333333333 -0.8 0  -0.4666666666666667 -0.8 0  -0.4 -0.8 0  -0.3333333333333334 -0.8 0  -0.2666666666666667 -0.8 0  -0.2 -0.8 0  -0.1333333333333333 -0.8 0  -0.06666666666666665 -0.8 0  0 -0.8 0  0.06666666666666665 -0.8 0  0.1333333333333333 -0.8 0  0.2 -0.8 0  0.2666666666666666 -0.8 0  0.3333333333333333 -0.8 0  0.3999999999999999 -0.8 0  0.4666666666666666 -0.8 0  0.5333333333333334 -0.8 0  0.6000000000000001 -0.8 0  0.6666666666666667 -0.8 0  0.7333333333333334 -0.8 0  0.8 -0.8 0  0.8666666666666667 -0.8 0  0.9333333333333333 -0.8 0  1 -0.8 0  -1 -0.7333333333333334 0  -0.9333333333333333 -0.7333333333333334 0  -0.8666666666666667 -0.7333333333333334 0  -0.8 -0.7333333333333334 0  -0.7333333333333334 -0.7333333333333334 0  -0.6666666666666667 -0.7333333333333334 0  -0.6 -0.7333333333333334 0  -0.5333333333333333 -0.7333333333333334 0  -0.4666666666666667 -0.7333333333333334 0  -0.4 -0.7333333333333334 0  -0.3333333333333334 -0.7333333333333334 0  -0.2666666666666667 -0.7333333333333334 0  -0.2 -0.7333333333333334 0  -0.1333333333333333 -0.7333333333333334 0  -0.06666666666666665 -0.7333333333333334 0  0 -0.7333333333333334 0  0.06666666666666665 -0.7333333333333334 0  0.1333333333333333 -0.7333333333333334 0  0.2 -0.7333333333333334 0  0.2666666666666666 -0.7333333333333334 0  0.3333333333333333 -0.7333333333333334 0  0.3999999999999999 -0.7333333333333334 0  0.4666666666666666 -0.7333333333333334 0  0.5333333333333334 -0.7333333333333334 0  0.6000000000000001 -0.7333333333333334 0  0.6666666666666667 -0.7333333333333334 0  0.7333333333333334 -0.7333333333333334 0  0.8 -0.7333333333333334 0  0.8666666666666667 -0.7333333333333334 0  0.9333333333333333 -0.7333333333333334 0  1 -0.7333333333333334 0  -1 -0.6666666666666667 0  -0.9333333333333333 -0.6666666666666667 0  -0.8666666666666667 -0.6666666666666667 0  -0.8 -0.6666666666666667 0  -0.7333333333333334 -0.6666666666666667 0  -0.6666666666666667 -0.6666666666666667 0  -0.6 -0.6666666666666667 0  -0.5333333333333333 -0.6666666666666667 0  -0.4666666666666667 -0.6666666666666667 0  -0.4 -0.6666666666666667 0  -0.3333333333333334 -0.6666666666666667 0  -0.2666666666666667 -0.6666666666666667 0  -0.2 -0.6666666666666667 0  -0.1333333333333333 -0.6666666666666667 0  -0.06666666666666665 -0.6666666666666667 0  0 -0.6666666666666667 0  0.06666666666666665 -0.6666666666666667 0  0.1333333333333333 -0.6666666666666667 0  0.2 -0.6666666666666667 0  0.2666666666666666 -0.6666666666666667 0  0.3333333333333333 -0.6666666666666667 0  0.3999999999999999 -0.6666666666666667 0  0.4666666666666666 -0.6666666666666667 0  0.5333333333333334 -0.6666666666666667 0  0.6000000000000001 -0.6666666666666667 0  0.6666666666666667 -0.6666666666666667 0  0.7333333333333334 -0.6666666666666667 0  0.8 -0.6666666666666667 0  0.8666666666666667 -0.6666666666666667 0  0.9333333333333333 -0.6666666666666667 0  1 -0.6666666666666667 0  -1 -0.6 0  -0.9333333333333333 -0.6 0  -0.8666666666666667 -0.6 0  -0.8 -0.6 0  -0.7333333333333334 -0.6 0  -0.6666666666666667 -0.6 0  -0.6 -0.6 0  -0.5333333333333333 -0.6 0  -0.4666666666666667 -0.6 0  -0.4 -0.6 0  -0.3333333333333334 -0.6 0  -0.2666666666666667 -0.6 0  -0.2 -0.6 0  -0.1333333333333333 -0.6 0  -0.06666666666666665 -0.6 0  0 -0.6 0  0.06666666666666665 -0.6 0  0.1333333333333333 -0.6 0  0.2 -0.6 0  0.2666666666666666 -0.6 0  0.3333333333333333 -0.6 0  0.3999999999999999 -0.6 0  0.4666666666666666 -0.6 0  0.5333333333333334 -0.6 0  0.6000000000000001 -0.6 0  0.6666666666666667 -0.6 0  0.7333333333333334 -0.6 0  0.8 -0.6 0  0.8666666666666667 -0.6 0  0.9333333333333333 -0.6 0  1 -0.6 0  -1 -0.5333333333333333 0  -0.9333333333333333 -0.5333333333333333 0  -0.8666666666666667 -0.5333333333333333 0  -0.8 -0.5333333333333333 0  -0.7333333333333334 -0.5333333333333333 0  -0.6666666666666667 -0.5333333333333333 0  -0.6 -0.5333333333333333 0  -0.5333333333333333 -0.5333333333333333 0  -0.4666666666666667 -0.5333333333333333 0  -0.4 -0.5333333333333333 0  -0.3333333333333334 -0.5333333333333333 0  -0.2666666666666667 -0.5333333333333333 0  -0.2 -0.5333333333333333 0  -0.1333333333333333 -0.5333333333333333 0  -0.06666666666666665 -0.5333333333333333 0  0 -0.5333333333333333 0  0.06666666666666665 -0.5333333333333333 0  0.1333333333333333 -0.5333333333333333 0  0.2 -0.5333333333333333 0  0.2666666666666666 -0.5333333333333333 0  0.3333333333333333 -0.5333333333333333 0  0.3999999999999999 -0.5333333333333333 0  0.4666666666666666 -0.5333333333333333 0  0.5333333333333334 -0.5333333333333333 0  0.6000000000000001 -0.5333333333333333 0  0.6666666666666667 -0.5333333333333333 0  0.7333333333333334 -0.5333333333333333 0  0.8 -0.5333333333333333 0  0.8666666666666667 -0.5333333333333333 0  0.9333333333333333 -0.5333333333333333 0  1 -0.5333333333333333 0  -1 -0.4666666666666667 0  -0.9333333333333333 -0.4666666666666667 0  -0.8666666666666667 -0.4666666666666667 0  -0.8 -0.4666666666666667 0  -0.7333333333333334 -0.4666666666666667 0  -0.6666666666666667 -0.4666666666666667 0  -0.6 -0.4666666666666667 0  -0.5333333333333333 -0.4666666666666667 0  -0.4666666666666667 -0.4666666666666667 0  -0.4 -0.4666666666666667 0  -0.3333333333333334 -0.4666666666666667 0  -0.2666666666666667 -0.4666666666666667 0  -0.2 -0.4666666666666667 0  -0.1333333333333333 -0.4666666666666667 0  -0.06666666666666665 -0.4666666666666667 0  0 -0.4666666666666667 0  0.06666666666666665 -0.4666666666666667 0  0.1333333333333333 -0.4666666666666667 0  0.2 -0.4666666666666667 0  0.2666666666666666 -0.4666666666666667 0  0.3333333333333333 -0.4666666666666667 0  0.3999999999999999 -0.4666666666666667 0  0.4666666666666666 -0.4666666666666667 0  0.5333333333333334 -0.4666666666666667 0  0.6000000000000001 -0.4666666666666667 0  0.6666666666666667 -0.4666666666666667 0  0.7333333333333334 -0.4666666666666667 0  0.8 -0.4666666666666667 0  0.8666666666666667 -0.4666666666666667 0  0.9333333333333333 -0.4666666666666667 0  1 -0.4666666666666667 0  -1 -0.4 0  -0.9333333333333333 -0.4 0  -0.8666666666666667 -0.4 0  -0.8 -0.4 0  -0.7333333333333334 -0.4 0  -0.6666666666666667 -0.4 0  -0.6 -0.4 0  -0.5333333333333333 -0.4 0  -0.4666666666666667 -0.4 0  -0.4 -0.4 0  -0.3333333333333334 -0.4 0  -0.2666666666666667 -0.4 0  -0.2 -0.4 0  -0.1333333333333333 -0.4 0  -0.06666666666666665 -0.4 0  0 -0.4 0  0.06666666666666665 -0.4 0  0.1333333333333333 -0.4 0  0.2 -0.4 0  0.2666666666666666 -0.4 0  0.3333333333333333 -0.4 0  0.3999999999999999 -0.4 0  0.4666666666666666 -0.4 0  0.5333333333333334 -0.4 0  0.6000000000000001 -0.4 0  0.6666666666666667 -0.4 0  0.7333333333333334 -0.4 0 
[...]
<PointData  Scalars="f_24"> 
<DataArray  type="Float64"  Name="f_24"  format="ascii">0.0000000000000000e+00  0.0000000000000000e+00  0.0000000000000000e+00  0.0000000000000000e+00  0.0000000000000000e+00  0.0000000000000000e+00  0.0000000000000000e+00  0.0000000000000000e+00  0.0000000000000000e+00  0.0000000000000000e+00  0.0000000000000000e+00  0.0000000000000000e+00  0.0000000000000000e+00  0.0000000000000000e+00  0.0000000000000000e+00  0.0000000000000000e+00  0.0000000000000000e+00  0.0000000000000000e+00  0.0000000000000000e+00  0.0000000000000000e+00  0.0000000000000000e+00  0.0000000000000000e+00  0.0000000000000000e+00  0.0000000000000000e+00  0.0000000000000000e+00  -1.4922190284019241e-07  0.0000000000000000e+00  -2.2027466046475352e-07  0.0000000000000000e+00  0.0000000000000000e+00  1.4769861542186172e+01  0.0000000000000000e+00  1.3091495597392337e+07  1.4002329371500000e+07  2.0424547887972061e+07  1.4209194192304261e+07  1.9742979509102423e+07  1.0540965636672625e+07  1.8489408863426827e+07  6.8861285928381830e+06  1.7087677599905435e+07  4.3864914747327613e+06  1.6587913479612548e+07  1.9314073510567239e+06  1.7344493779694691e+07  1.0608159766069632e+05  1.8211807961788245e+07  -5.3095614697930391e+05  1.9472440065219413e+07  -5.8992291507421387e+05  2.1522466216380946e+07  2.3359039599447316e+05  2.5360937542956520e+07  -4.5072357415449037e+05  3.8061846213350110e+07  -7.8844856483721519e+06  6.7871171753382877e+07  -2.2060474785085242e+07  1.1379727431778646e+08  -1.3521753167694941e+07  2.4925948002998608e+08  1.2896842520270344e+01  0.0000000000000000e+00  1.4002329347238269e+07  1.4975058029958444e+07  5.0422358505799267e+06  1.3701651819647485e+06  -5.8160047004836183e+06  -5.2882588368392205e+06  -1.0620413288448336e+07  -8.5132215709351320e+06  -1.1221689317307981e+07  -9.3699742276135180e+06  -1.1909585236065984e+07  -8.6738493706028257e+06  -1.2114548494508917e+07  -9.1300616862506513e+06  -1.1384965438110145e+07  -9.9956545116743390e+06  -1.1592890366190119e+07  -1.0551980913050702e+07  -1.1982091619755641e+07  -1.1649839954323996e+07  -1.4008059839775281e+07  -9.1320177395877410e+06  -2.4167908410289124e+07  -2.5547880874039736e+06  -3.9107464416105047e+07  2.0620172313218676e+06  -3.4017280263693288e+07  -2.1248067398336932e+07  -1.3521762463809408e+07  1.1207881499929867e+01  -1.3602544108414269e-08  2.0424547876148101e+07  5.0422358541661622e+06  8.7564079396300972e+05  -6.3527269474341795e+06  8.3014732647713192e+05  -5.6387813569145296e+06  4.5259178179175565e+06  -2.1140622093260027e+06  8.3903449398509786e+06  -1.8091318781937726e+06  1.2256262411175895e+07  -2.0548446351257304e+06  1.3675017371619266e+07  -1.7012988945234900e+06  1.4917682682533368e+07  -2.9903448356567007e+06  1.7043282425888117e+07  -4.3016722435307652e+06  1.7567671609765083e+07  -5.6179590301209250e+06  2.0900696728922170e+07  -1.2527774729819287e+07  3.4048459970241666e+07  -2.1692400972807944e+07  5.1831854542565495e+07  -3.5638541341128729e+07  6.1467991264948942e+07  -3.4017279624037541e+07  1.1379727612532599e+08  9.6905063059493948e+00  0.0000000000000000e+00  1.4209194117471699e+07  1.3701652038287665e+06  -6.3527269544201996e+06  1.3027868079271787e+05  -5.1877330415024552e+06  9.8287031257050612e+05  -3.1673796557504954e+06  6.0635060122296680e+05  -5.4423785088956133e+06  6.3058991089484713e+05  -6.6829949632194024e+06  -1.3843323774035571e+06  -6.3731856942851655e+06  -2.4412334728487199e+06  -7.3796966657373430e+06  -2.1524156923702392e+06  -7.4479275819966402e+06  -3.6812362983384463e+06  -5.5449739088874916e+06  -3.7163927078532185e+06  -9.7599153345526364e+06  1.1142676462037188e+06  -2.3796364649290051e+07  4.2472849423912717e+06  -3.5088339505008765e+07  1.3256619073131140e+07  -3.5638551121943884e+07  2.0620238336131268e+06  -2.2060482566335294e+07  8.3326817877803325e+00  -3.5416560250946099e-09  1.9742979485711906e+07  -5.8160046581475297e+06  8.3014733386932791e+05  -5.1877330455558039e+06  2.0728410234446127e+06  -2.6706196829378423e+06  4.2754504402178926e+06  -4.4225519547462072e+06  7.4285337914908240e+06  -4.2305599522133023e+06  8.2144441169710010e+06  -3.4701382782242498e+06  1.0257963635036353e+07  -4.9265505097434446e+06  1.2926855183372844e+07  -5.8062867843808327e+06  1.3266841573866006e+07  -5.3462235158415977e+06  1.3927276007807285e+07  -9.0798121090167612e+06  2.3027123463700302e+07  -1.5443053001987066e+07  3.7624374047699071e+07  -2.2592084214816410e+07  4.3634482856730819e+07  -3.5088351321264714e+07  5.1831865672428794e+07  -3.9107465620115407e+07  6.7871171138783872e+07  7.1228113147116972e+00  0.0000000000000000e+00  1.0540965528351983e+07  -5.2882587728902847e+06  -5.6387814169269875e+06  9.8287032623015554e+05  -2.6706196884685657e+06  3.5133671988065527e+06  -4.6815533887956487e+06  4.4035401559607545e+06  -4.7254028157787081e+06  2.2605767530580065e+06  -4.9477917190932157e+06  2.0966836898202521e+06  -6.7203349624945140e+06  1.9871646445441945e+06  -6.7929595943234209e+06  2.6087169476332093e+05  -5.2248062667675978e+06  -1.1419305414615753e+06  -5.6679998454729319e+06  1.5281957862803778e+06  -1.3537596021554662e+07  3.1976431986189461e+06  -2.0369124773335814e+07  7.5514797129165800e+06  -2.2592112524438463e+07  4.2473068170584114e+06  -2.1692409304060321e+07  -2.5547890313437250e+06  -7.8844882943583708e+06  6.0497352876794572e+00  -1.2476425418171884e-09  1.8489408849391591e+07  -1.0620413224926287e+07  4.5259178121278863e+06  -3.1673796313275122e+06  4.2754504454219388e+06  -4.6815533946191985e+06  5.1018066401595790e+06  -4.4812984271039702e+06  4.7719267090394422e+06  -4.7170405585105792e+06  7.4907533256986504e+06  -6.0090743971245540e+06  9.1764657359132078e+06  -5.7953381045912970e+06  9.9325185406255182e+06  -5.8733440914487578e+06  1.0696713868761329e+07  -6.9260608233084409e+06  1.3862226463943470e+07  -1.1004602474936688e+07  2.3313489935413167e+07  -1.4254638293652922e+07  2.8686205227824494e+07  -2.0369173949907731e+07  3.7624414579148799e+07  -2.3796372809938598e+07  3.4048452753874309e+07  -2.4167900599364676e+07  3.8061844957373269e+07  5.1027318812678022e+00  0.0000000000000000e+00  6.8861284507892160e+06  -8.5132214798358306e+06  -2.1140623080277718e+06  6.0635063722525816e+05  -4.4225520089266449e+06  4.4035401790622175e+06  -4.4812984368870817e+06  4.0794525373883694e+06  -4.9158583613956990e+06  5.4094376536705224e+06  -6.1589556277417904e+06  4.1976697485204497e+06  -5.8407939207964679e+06  3.3908295444452981e+06  -6.4537096808990184e+06  2.8732878815255249e+06  -5.5539495455844905e+06  1.7742253529819010e+06  -7.2418821112504723e+06  3.1813746284916284e+06  -1.3087572463052193e+07  4.4244367244660044e+06  -1.4254729945522370e+07  3.1977168931376836e+06  -1.5443069294758892e+07  1.1142502984972720e+06  -1.2527761507804351e+07  -9.1320192258331627e+06  -4.5072894633754407e+05  4.2715168955881051e+00  -1.0813124526045891e-08  1.7087677598045170e+07  -1.1221689224093057e+07  8.3903449191710148e+06  -5.4423784742703121e+06  7.4285338154278779e+06  -4.7254028109976687e+06  4.7719267163352128e+06  -4.9158583664799677e+06  6.1246638821862377e+06  -6.0580858533754563e+06  5.9027828106529843e+06  -5.6014573205411676e+06  7.9372487741309823e+06  -7.0612751040314035e+06  9.4615054287335239e+06  -6.4562851785979634e+06  8.4445267591103874e+06  -6.5453296670234492e+06  1.3251095219948946e+07  -1.0186541812398540e+07  1.8986212786724355e+07  -1.3087729140307102e+07  2.3313618622052364e+07  -1.3537618620808046e+07  2.3027085807083242e+07  -9.7598820345476642e+06  2.0900691196621947e+07  -1.4008065182913704e+07  2.5360941068239186e+07  3.5462438463418633e+00  0.0000000000000000e+00  4.3864913056090735e+06  -9.3699741180036571e+06  -1.8091320393255907e+06  6.3059000229077891e+05  -4.2305600591113353e+06  2.2605767883409522e+06  -4.7170406067286702e+06  5.4094376811434180e+06  -6.0580858696945189e+06  5.1410731059153872e+06  -5.5096358269008892e+06  6.4953428330079215e+06  -7.5123092349302229e+06  5.6321010060747620e+06  -6.0139524991098251e+06  2.7978043328282149e+06  -4.1854710105761015e+06  3.3724281011693883e+06  -9.6161380866462998e+06  5.3709715777516365e+06  -1.0186802362949608e+07  3.1815902756150090e+06  -1.1004638393201374e+07  1.5281229406137520e+06  -9.0797502905661277e+06  -3.7164030039902986e+06  -5.6179759470958654e+06  -1.1649828362757199e+07  2.3358686248510977e+05  2.9175035145059121e+00  0.0000000000000000e+00  1.6587913494804287e+07  -1.1909585135518318e+07  1.2256262412489310e+07  -6.6829949182172054e+06  8.2144441281038169e+06  -4.9477916925241556e+06  7.4907533607088616e+06  -6.1589556434106473e+06  5.9027828289296515e+06  -5.5096358331738077e+06  7.2931871355448607e+06  -7.8988742236655392e+06  7.0132602871630136e+06  -5.6130087810789216e+06  6.6321400468644565e+06  -5.2242490641161222e+06  7.6984225418782281e+06  -8.3054749115094971e+06  1.3856835082657741e+07  -9.6165428102415018e+06  1.3251437699126020e+07  -7.2419315543577876e+06  1.3862094086122373e+07  -5.6678850614001229e+06  1.3927256972749915e+07  -5.5450046644916581e+06  1.7567695104125451e+07  -1.1982092935955159e+07  2.1522462245758913e+07  2.3763248469620293e+00  0.0000000000000000e+00  1.9314071332248428e+06  -8.6738492177382167e+06  -2.0548448669636005e+06  -1.3843322599577068e+06  -3.4701384275092250e+06  2.0966837741042203e+06  -6.0090745229418902e+06  4.1976698047271762e+06  -5.6014573754698494e+06  6.4953428683170276e+06  -7.8988742529302733e+06  6.2302528174575903e+06  -4.9040711900487794e+06  5.5090546729121292e+06  -6.5638727887148261e+06  4.7129894349523913e+06  -6.1515017730792696e+06  5.7036488304532999e+06  -8.3060640882392190e+06  3.3729387386391461e+06  -6.5453965194322867e+06  1.7740016132498798e+06  -6.9258677416393645e+06  -1.1419607668723066e+06  -5.3462845660798866e+06  -3.6811897464065026e+06  -4.3016775064197574e+06  -1.0551991776680835e+07  -5.8991967775149178e+05  1.9141740558673277e+00  -7.6705867901888702e-06  1.7344493832920928e+07  -1.2114548390469709e+07  1.3675017376884956e+07  -6.3731856150585534e+06  1.0257963660516905e+07  -6.7203349553662511e+06  9.1764657968483493e+06  -5.8407939227296794e+06  7.9372488293030392e+06  -7.5123092832164317e+06  7.0132603339024009e+06  -4.9040712005079156e+06  6.2767074356827810e+06  -8.2419138952488452e+06  7.1057483495891932e+06  -4.2708031046345532e+06  6.0541877321350761e+06  -6.1522906950627929e+06  7.6991291198370056e+06  -4.1855523158574891e+06  8.4441756414721143e+06  -5.5536428739294996e+06  1.0696669835488627e+07  -5.2249133779757526e+06  1.3266925131681023e+07  -7.4479334482213296e+06  1.7043256938338671e+07  -1.1592875864279067e+07  1.9472440473680928e+07  1.5229550689690510e+00  0.0000000000000000e+00  1.0608130790514653e+05  -9.1300615011395141e+06  -1.7012991837103986e+06  -2.4412333133572000e+06  -4.9265507597640101e+06  1.9871648016841484e+06  -5.7953382968692500e+06  3.3908296520100259e+06  -7.0612752682988355e+06  5.6321011104958756e+06  -5.6130088606923008e+06  5.5090547143838182e+06  -8.2419139486671118e+06  7.0808120446310584e+06  -2.5873401897448618e+06  7.9899746397514548e+05  -4.2717687868291168e+06  4.7138880800527669e+06  -5.2243423079914255e+06  2.7972987075349055e+06  -6.4558380434897235e+06  2.8732311059543034e+06  -5.8735241592897587e+06  2.6101239196354584e+05  -5.8062968111002622e+06  -2.1524642593612899e+06  -2.9903175121097122e+06  -9.9956518630795348e+06  -5.3096473888373340e+05  1.1950094395416209e+00  7.4976577064942699e-09  1.8211808053019583e+07  -1.1384965302082501e+07  1.4917682703048080e+07  -7.3796965987717453e+06  1.2926855269788431e+07  -6.7929595974582899e+06  9.9325186309232451e+06  -6.4537097243369874e+06  9.4615055660333633e+06  -6.0139525679865358e+06  6.6321401485351492e+06  -6.5638729054732705e+06  7.1057485028722007e+06  -2.5873402542824727e+06  -2.6879667403000069e+05  -2.5884103613422853e+06  7.1067901413663011e+06  -6.5639719421178307e+06  6.6314778990024785e+06  -6.0133525173713891e+06  9.4614396436209138e+06  -6.4539852397959586e+06  9.9327360998457819e+06  -6.7929698702231171e+06  1.2926768933842471e+07  -7.3796444697276130e+06  1.4917687703175927e+07  -1.1384984056438593e+07  1.8211814339122429e+07  9.2311634638663576e-01  0.0000000000000000e+00  -5.3095652903118089e+05  -9.9956542777093761e+06  -2.9903452502987674e+06  -2.1524154277365962e+06  -5.8062871631929791e+06  2.6087192323576278e+05  -5.8733444068740625e+06  2.8732881195695526e+06  -6.4562854871740714e+06  2.7978045361078205e+06  -5.2242493278806238e+06  4.7129896724920468e+06  -4.2708032917218497e+06  7.9899746392933850e+05  -2.5884102967815036e+06  7.0819070335249016e+06  -8.2420154803726906e+06  5.5082731818368277e+06  -5.6122767978143217e+06  5.6320320867985096e+06  -7.0616610856904117e+06  3.3911379659701460e+06  -5.7953469845805643e+06  1.9870252220921800e+06  -4.9264657825054787e+06  -2.4412227208590279e+06  -1.7013379621177437e+06  -9.1300459124377444e+06  1.0608344498071089e+05  7.0049259383286910e-01  7.7033590955826834e-09  1.9472440209680643e+07  -1.1592890218789568e+07  1.7043282526265670e+07  -7.4479275510235941e+06  1.3266841723243581e+07  -5.2248063018401153e+06  1.0696714072820015e+07  -5.5539496833070731e+06  8.4445269885289967e+06  -4.1854711374196392e+06  7.6984227544931844e+06  -6.1515018822485758e+06  6.0541877320466349e+06  -4.2717685996255716e+06  7.1067899881005026e+06  -8.2420154269575598e+06  6.2758809573531952e+06  -4.9032612009059042e+06  7.0131921479917727e+06  -7.5127945435648784e+06  7.9376459291287409e+06  -5.8407951336240107e+06  9.1762594291100502e+06  -6.7202065249984525e+06  1.0257982851983678e+07  -6.3732511883130027e+06  1.3675045024763759e+07  -1.2114539109298546e+07  1.7344483534885377e+07  5.2079260651424197e-01  0.0000000000000000e+00  -5.8992346753873292e+05  -1.0551980552208837e+07  -4.3016728632130185e+06  -3.6812359175580526e+06  -5.3462240451795766e+06  -1.1419301909622969e+06  -6.9260613153094444e+06  1.7742256746199636e+06  -6.5453300214597285e+06  3.3724282793261642e+06  -8.3054751239780020e+06  5.7036488303975984e+06  -6.1522905857209172e+06  4.7138878423645599e+06  -6.5639718254260411e+06  5.5082731403401094e+06  -4.9032611904492509e+06  6.2301856007957086e+06  -7.8994199445478898e+06  6.4958058301730575e+06  -5.6014492241504928e+06  4.1973947058129814e+06  -6.0089006199557111e+06  2.0967161469855472e+06  -3.4702413954259832e+06  -1.3842879207919508e+06  -2.0548273559206137e+06  -8.6738737284749616e+06  1.9314120669081155e+06  3.7810845547996608e-01  -1.6459711475709592e-08  2.1522466462536100e+07  -1.1982091458050467e+07  1.7567671779340453e+07  -5.5449738562733065e+06  1.3927276206467854e+07  -5.6679998858320471e+06  1.3862226684549352e+07  -7.2418821272703502e+06  1.3251095310390303e+07  -9.6161380141784120e+06  1.3856835082507016e+07  -8.3060638757134136e+06  7.6991289071407747e+06  -5.2243420440363819e+06  6.6314777974858275e+06  -5.6122767181255501e+06  7.0131921012893450e+06  -7.8994199152792068e+06  7.2936744912179755e+06  -5.5096203639907027e+06  5.9024546433195397e+06  -6.1587418762549656e+06  7.4908010950227156e+06  -4.9479355337196896e+06  8.2145069842851087e+06  -6.6829637144048708e+06  1.2256218127036918e+07  -1.1909573289795574e+07  1.6587920213348936e+07  2.6696980597425657e-01  0.0000000000000000e+00  2.3358957344066881e+05  -1.1649839459819518e+07  -5.6179598354014894e+06  -3.7163922841774612e+06  -9.0798127340568770e+06  1.5281961130530958e+06  -1.1004602905727874e+07  3.1813747473621336e+06  -1.0186542011638252e+07  5.3709715771912793e+06  -9.6165428820545506e+06  3.3729385604636818e+06  -4.1855521891145944e+06  2.7972985039646956e+06  -6.0133524487663982e+06  5.6320319822058696e+06  -7.5127944953693459e+06  6.4958057948213406e+06  -5.5096203577196691e+06  5.1407248386279549e+06  -6.0578493068970451e+06  5.4094985857783481e+06  -4.7172221550502628e+06  2.2606575147100897e+06  -4.2305141519753095e+06  6.3052311616041022e+05  -1.8091151316523501e+06  -9.3699569634845741e+06  4.3864786842475245e+06  1.8234396965661950e-01  0.0000000000000000e+00  2.5360937850022800e+07  -1.4008059498475684e+07  2.0900696864308804e+07  -9.7599151551090218e+06  2.3027123642912906e+07  -1.3537595918795962e+07  2.3313490029144567e+07  -1.3087572276525259e+07  1.8986212786410816e+07  -1.0186802162679547e+07  1.3251437607749831e+07  -6.5453961649296712e+06  8.4441754124123715e+06  -6.4558377344090091e+06  9.4614395067839380e+06  -7.0616609210751466e+06  7.9376458741606371e+06  -5.6014491691107256e+06  5.9024546250865487e+06  -6.0578492905747537e+06  6.1247300062669134e+06  -4.9160621741183354e+06  4.7720201195789529e+06  -4.7253419624286462e+06  7.4284438934949897e+06  -5.4423551516798083e+06  8.3903739105518665e+06  -1.1221714168933149e+07  1.7087680538055446e+07  1.1963590370194400e-01  0.0000000000000000e+00  -4.5072471521640883e+05  -9.1320171571145672e+06  -1.2527775727354875e+07  1.1142680579696293e+06  -1.5443053677660497e+07  3.1976433990310691e+06  -1.4254638658699853e+07  4.4244367234227052e+06  -1.3087729326389201e+07  3.1815901563215218e+06  -7.2419315373298284e+06  1.7740012913405693e+06  -5.5536427369571272e+06  2.8732308669888810e+06  -6.4539851971655618e+06  3.3911378577563437e+06  -5.8407951321288627e+06  4.1973946493577082e+06  -6.1587418607155494e+06  5.4094985582605852e+06  -4.9160621690371782e+06  4.0795505604466437e+06  -4.4812287273052633e+06  4.4034330783394761e+06  -4.4225247901147306e+06  6.0639251724611432e+05  -2.1141017969694543e+06  -8.5132167339913175e+06  6.8861372702926015e+06  7.4688089971351360e-02  0.0000000000000000e+00  3.8061846436744280e+07  -2.4167907752293538e+07  3.4048460150920607e+07  -2.3796364377577778e+07  3.7624374247310407e+07  -2.0369124484276053e+07  2.8686205225508235e+07  -1.4254729576069361e+07  2.3313618527187839e+07  -1.1004637962857567e+07  1.3862093864597797e+07  -6.9258672488684952e+06  1.0696669632840229e+07  -5.8735238422165634e+06  9.9327360110213738e+06  -5.7953467911324212e+06  9.1762593690379243e+06  -6.0089004935884178e+06  7.4908010603173757e+06  -4.7172221066841139e+06  4.7720201123303371e+06  -4.4812287175177429e+06  5.1016930823725825e+06  -4.6815236507817218e+06  4.2755019970335448e+06  -3.1674301040509646e+06  4.5259223007155787e+06  -1.0620392892787514e+07  1.8489398114129379e+07  4.3780787114554284e-02  0.0000000000000000e+00  -7.8844873419760577e+06  -2.5547872293745554e+06  -2.1692402310274880e+07  4.2472852956607137e+06  -2.2592084932963248e+07  7.5514797141286824e+06  -2.0369174239625055e+07  3.1977166875020401e+06  -1.3537618720602067e+07  1.5281226153307694e+06  -5.6678850206063045e+06  -1.1419611192005523e+06  -5.2249133457111213e+06  2.6101216044480377e+05  -6.7929698698875681e+06  1.9870250626995321e+06  -6.7202065338237733e+06  2.0967160615483625e+06  -4.9479355609920397e+06  2.2606574790497455e+06  -4.7253419673821870e+06  4.4034330551867103e+06  -4.6815236449629562e+06  3.5134224641570048e+06  -2.6706771072409758e+06  9.8287468436754728e+05  -5.6387528264896171e+06  -5.2882774077951396e+06  1.0540964402475312e+07  2.3631778467497856e-02  0.0000000000000000e+00  6.7871171762919545e+07  -3.9107463387273639e+07  5.1831854866218761e+07  -3.5088338912969895e+07  4.3634482843769528e+07  -2.2592111786845915e+07  3.7624414386292480e+07  -1.5443068617938831e+07  2.3027085621120129e+07  -9.0797496680631060e+06  1.3927256775100224e+07  -5.3462840323545812e+06  1.3266924988133347e+07  -5.8062964262322122e+06  1.2926768852907797e+07  -4.9264655279710125e+06  1.0257982829939781e+07  -3.4702412437172625e+06  8.2145069747251626e+06  -4.2305140441550510e+06  7.4284438700347403e+06  -4.4225247357288375e+06  4.2755019918871680e+06  -2.6706771017054236e+06  2.0728452006683582e+06  -5.1876988551688595e+06  8.3012264400326379e+05  -5.8160062033452000e+06  1.9742988519492224e+07  1.1396498103538703e-02  0.0000000000000000e+00  -2.2060477695596211e+07  2.0620183990479838e+06  -3.5638542783992864e+07  1.3256619055116629e+07  -3.5088351979339570e+07  4.2473064248539722e+06  -2.