<?xml version="1.0"?>
<VTKFile type="UnstructuredGrid"  version="0.1"  >
<UnstructuredGrid>
<Piece  NumberOfPoints="961" NumberOfCells="1800">
<Points>
<DataArray  type="Float64"  NumberOfComponents="3"  format="ascii">-1 -1 0  -0.9333333333333333 -1 0  -0.8666666666666667 -1 0  -0.8 -1 0  -0.7333333333333334 -1 0  -0.6666666666666667 -1 0  -0.6 -1 0  -0.5333333333333333 -1 0  -0.4666666666666667 -1 0  -0.4 -1 0  -0.3333333333333334 -1 0  -0.2666666666666667 -1 0  -0.2 -1 0  -0.1333333333333333 -1 0  -0.06666666666666665 -1 0  0 -1 0  0.06666666666666665 -1 0  0.1333333333333333 -1 0  0.2 -1 0  0.2666666666666666 -1 0  0.3333333333333333 -1 0  0.3999999999999999 -1 0  0.4666666666666666 -1 0  0.5333333333333334 -1 0  0.6000000000000001 -1 0  0.6666666666666667 -1 0  0.7333333333333334 -1 0  0.8 -1 0  0.8666666666666667 -1 0  0.9333333333333333 -1 0  1 -1 0  -1 -0.9333333333333333 0  -0.9333333333333333 -0.9333333333333333 0  -0.8666666666666667 -0.9333333333333333 0  -0.8 -0.9333333333333333 0  -0.7333333333333334 -0.9333333333333333 0  -0.6666666666666667 -0.9333333333333333 0  -0.6 -0.9333333333333333 0  -0.5333333333333333 -0.9333333333333333 0  -0.4666666666666667 -0.9333333333333333 0  -0.4 -0.9333333333333333 0  -0.3333333333333334 -0.9333333333333333 0  -0.2666666666666667 -0.9333333333333333 0  -0.2 -0.9333333333333333 0  -0.1333333333333333 -0.9333333333333333 0  -0.06666666666666665 -0.9333333333333333 0  0 -0.9333333333333333 0  0.06666666666666665 -0.9333333333333333 0  0.1333333333333333 -0.9333333333333333 0  0.2 -0.9333333333333333 0  0.2666666666666666 -0.9333333333333333 0  0.3333333333333333 -0.9333333333333333 0  0.3999999999999999 -0.9333333333333333 0  0.4666666666666666 -0.9333333333333333 0  0.5333333333333334 -0.9333333333333333 0  0.6000000000000001 -0.9333333333333333 0  0.6666666666666667 -0.9333333333333333 0  0.7333333333333334 -0.9333333333333333 0  0.8 -0.9333333333333333 0  0.8666666666666667 -0.9333333333333333 0  0.9333333333333333 -0.9333333333333333 0  1 -0.9333333333333333 0  -1 -0.8666666666666667 0  -0.9333333333333333 -0.8666666666666667 0  -0.8666666666666667 -0.8666666666666667 0  -0.8 -0.8666666666666667 0  -0.7333333333333334 -0.8666666666666667 0  -0.6666666666666667 -0.8666666666666667 0  -0.6 -0.8666666666666667 0  -0.5333333333333333 -0.8666666666666667 0  -0.4666666666666667 -0.8666666666666667 0  -0.4 -0.8666666666666667 0  -0.3333333333333334 -0.8666666666666667 0  -0.2666666666666667 -0.8666666666666667 0  -0.2 -0.8666666666666667 0  -0.1333333333333333 -0.8666666666666667 0  -0.06666666666666665 -0.8666666666666667 0  0 -0.8666666666666667 0  0.06666666666666665 -0.8666666666666667 0  0.1333333333333333 -0.8666666666666667 0  0.2 -0.8666666666666667 0  0.2666666666666666 -0.8666666666666667 0  0.3333333333333333 -0.8666666666666667 0  0.3999999999999999 -0.8666666666666667 0  0.4666666666666666 -0.8666666666666667 0  0.5333333333333334 -0.8666666666666667 0  0.6000000000000001 -0.8666666666666667 0  0.6666666666666667 -0.8666666666666667 0  0.7333333333333334 -0.8666666666666667 0  0.8 -0.8666666666666667 0  0.8666666666666667 -0.8666666666666667 0  0.9333333333333333 -0.8666666666666667 0  1 -0.8666666666666667 0  -1 -0.8 0  -0.9333333333333333 -0.8 0  -0.8666666666666667 -0.8 0  -0.8 -0.8 0  -0.7333333333333334 -0.8 0  -0.6666666666666667 -0.8 0  -0.6 -0.8 0  -0.5333333333333333 -0.8 0  -0.4666666666666667 -0.8 0  -0.4 -0.8 0  -0.3333333333333334 -0.8 0  -0.2666666666666667 -0.8 0  -0.2 -0.8 0  -0.1333333333333333 -0.8 0  -0.06666666666666665 -0.8 0  0 -0.8 0  0.06666666666666665 -0.8 0  0.1333333333333333 -0.8 0  0.2 -0.8 0  0.2666666666666666 -0.8 0  0.3333333333333333 -0.8 0  0.3999999999999999 -0.8 0  0.4666666666666666 -0.8 0  0.5333333333333334 -0.8 0  0.6000000000000001 -0.8 0  0.6666666666666667 -0.8 0  0.7333333333333334 -0.8 0  0.8 -0.8 0  0.8666666666666667 -0.8 0  0.9333333333333333 -0.8 0  1 -0.8 0  -1 -0.7333333333333334 0  -0.9333333333333333 -0.7333333333333334 0  -0.8666666666666667 -0.7333333333333334 0  -0.8 -0.7333333333333334 0  -0.7333333333333334 -0.7333333333333334 0  -0.6666666666666667 -0.7333333333333334 0  -0.6 -0.7333333333333334 0  -0.5333333333333333 -0.7333333333333334 0  -0.4666666666666667 -0.7333333333333334 0  -0.4 -0.7333333333333334 0  -0.3333333333333334 -0.7333333333333334 0  -0.2666666666666667 -0.7333333333333334 0  -0.2 -0.7333333333333334 0  -0.1333333333333333 -0.7333333333333334 0  -0.06666666666666665 -0.7333333333333334 0  0 -0.7333333333333334 0  0.06666666666666665 -0.7333333333333334 0  0.1333333333333333 -0.7333333333333334 0  0.2 -0.7333333333333334 0  0.2666666666666666 -0.7333333333333334 0  0.3333333333333333 -0.7333333333333334 0  0.3999999999999999 -0.7333333333333334 0  0.4666666666666666 -0.7333333333333334 0  0.5333333333333334 -0.7333333333333334 0  0.6000000000000001 -0.7333333333333334 0  0.6666666666666667 -0.7333333333333334 0  0.7333333333333334 -0.7333333333333334 0  0.8 -0.7333333333333334 0  0.8666666666666667 -0.7333333333333334 0  0.9333333333333333 -0.7333333333333334 0  1 -0.7333333333333334 0  -1 -0.6666666666666667 0  -0.9333333333333333 -0.6666666666666667 0  -0.8666666666666667 -0.6666666666666667 0  -0.8 -0.6666666666666667 0  -0.7333333333333334 -0.6666666666666667 0  -0.6666666666666667 -0.6666666666666667 0  -0.6 -0.6666666666666667 0  -0.5333333333333333 -0.6666666666666667 0  -0.4666666666666667 -0.6666666666666667 0  -0.4 -0.6666666666666667 0  -0.3333333333333334 -0.6666666666666667 0  -0.2666666666666667 -0.6666666666666667 0  -0.2 -0.6666666666666667 0  -0.1333333333333333 -0.6666666666666667 0  -0.06666666666666665 -0.6666666666666667 0  0 -0.6666666666666667 0  0.06666666666666665 -0.6666666666666667 0  0.1333333333333333 -0.6666666666666667 0  0.2 -0.6666666666666667 0  0.2666666666666666 -0.6666666666666667 0  0.3333333333333333 -0.6666666666666667 0  0.3999999999999999 -0.6666666666666667 0  0.4666666666666666 -0.6666666666666667 0  0.5333333333333334 -0.6666666666666667 0  0.6000000000000001 -0.6666666666666667 0  0.6666666666666667 -0.6666666666666667 0  0.7333333333333334 -0.6666666666666667 0  0.8 -0.6666666666666667 0  0.8666666666666667 -0.6666666666666667 0  0.9333333333333333 -0.6666666666666667 0  1 -0.6666666666666667 0  -1 -0.6 0  -0.9333333333333333 -0.6 0  -0.8666666666666667 -0.6 0  -0.8 -0.6 0  -0.7333333333333334 -0.6 0  -0.6666666666666667 -0.6 0  -0.6 -0.6 0  -0.5333333333333333 -0.6 0  -0.4666666666666667 -0.6 0  -0.4 -0.6 0  -0.3333333333333334 -0.6 0  -0.2666666666666667 -0.6 0  -0.2 -0.6 0  -0.1333333333333333 -0.6 0  -0.06666666666666665 -0.6 0  0 -0.6 0  0.06666666666666665 -0.6 0  0.1333333333333333 -0.6 0  0.2 -0.6 0  0.2666666666666666 -0.6 0  0.3333333333333333 -0.6 0  0.3999999999999999 -0.6 0  0.4666666666666666 -0.6 0  0.5333333333333334 -0.6 0  0.6000000000000001 -0.6 0  0.6666666666666667 -0.6 0  0.7333333333333334 -0.6 0  0.8 -0.6 0  0.8666666666666667 -0.6 0  0.9333333333333333 -0.6 0  1 -0.6 0  -1 -0.5333333333333333 0  -0.9333333333333333 -0.5333333333333333 0  -0.8666666666666667 -0.5333333333333333 0  -0.8 -0.5333333333333333 0  -0.7333333333333334 -0.5333333333333333 0  -0.6666666666666667 -0.5333333333333333 0  -0.6 -0.5333333333333333 0  -0.5333333333333333 -0.5333333333333333 0  -0.4666666666666667 -0.5333333333333333 0  -0.4 -0.5333333333333333 0  -0.3333333333333334 -0.5333333333333333 0  -0.2666666666666667 -0.5333333333333333 0  -0.2 -0.5333333333333333 0  -0.1333333333333333 -0.5333333333333333 0  -0.06666666666666665 -0.5333333333333333 0  0 -0.5333333333333333 0  0.06666666666666665 -0.5333333333333333 0  0.1333333333333333 -0.5333333333333333 0  0.2 -0.5333333333333333 0  0.2666666666666666 -0.5333333333333333 0  0.3333333333333333 -0.5333333333333333 0  0.3999999999999999 -0.5333333333333333 0  0.4666666666666666 -0.5333333333333333 0  0.5333333333333334 -0.5333333333333333 0  0.6000000000000001 -0.5333333333333333 0  0.6666666666666667 -0.5333333333333333 0  0.7333333333333334 -0.5333333333333333 0  0.8 -0.5333333333333333 0  0.8666666666666667 -0.5333333333333333 0  0.9333333333333333 -0.5333333333333333 0  1 -0.5333333333333333 0  -1 -0.4666666666666667 0  -0.9333333333333333 -0.4666666666666667 0  -0.8666666666666667 -0.4666666666666667 0  -0.8 -0.4666666666666667 0  -0.7333333333333334 -0.4666666666666667 0  -0.6666666666666667 -0.4666666666666667 0  -0.6 -0.4666666666666667 0  -0.5333333333333333 -0.4666666666666667 0  -0.4666666666666667 -0.4666666666666667 0  -0.4 -0.4666666666666667 0  -0.3333333333333334 -0.4666666666666667 0  -0.2666666666666667 -0.4666666666666667 0  -0.2 -0.4666666666666667 0  -0.1333333333333333 -0.4666666666666667 0  -0.06666666666666665 -0.4666666666666667 0  0 -0.4666666666666667 0  0.06666666666666665 -0.4666666666666667 0  0.1333333333333333 -0.4666666666666667 0  0.2 -0.4666666666666667 0  0.2666666666666666 -0.4666666666666667 0  0.3333333333333333 -0.4666666666666667 0  0.3999999999999999 -0.4666666666666667 0  0.4666666666666666 -0.4666666666666667 0  0.5333333333333334 -0.4666666666666667 0  0.6000000000000001 -0.4666666666666667 0  0.6666666666666667 -0.4666666666666667 0  0.7333333333333334 -0.4666666666666667 0  0.8 -0.4666666666666667 0  0.8666666666666667 -0.4666666666666667 0  0.9333333333333333 -0.4666666666666667 0  1 -0.4666666666666667 0  -1 -0.4 0  -0.9333333333333333 -0.4 0  -0.8666666666666667 -0.4 0  -0.8 -0.4 0  -0.7333333333333334 -0.4 0  -0.6666666666666667 -0.4 0  -0.6 -0.4 0  -0.5333333333333333 -0.4 0  -0.4666666666666667 -0.4 0  -0.4 -0.4 0  -0.3333333333333334 -0.4 0  -0.2666666666666667 -0.4 0  -0.2 -0.4 0  -0.1333333333333333 -0.4 0  -0.06666666666666665 -0.4 0  0 -0.4 0  0.06666666666666665 -0.4 0  0.1333333333333333 -0.4 0  0.2 -0.4 0  0.2666666666666666 -0.4 0  0.3333333333333333 -0.4 0  0.3999999999999999 -0.4 0  0.4666666666666666 -0.4 0  0.5333333333333334 -0.4 0  0.6000000000000001 -0.4 0  0.6666666666666667 -0.4 0  0.7333333333333334 -0.4 0 
[...]
<PointData  Scalars="f_24"> 
<DataArray  type="Float64"  Name="f_24"  format="ascii">0.0000000000000000e+00  0.0000000000000000e+00  0.0000000000000000e+00  0.0000000000000000e+00  0.0000000000000000e+00  0.0000000000000000e+00  0.0000000000000000e+00  0.0000000000000000e+00  0.0000000000000000e+00  0.0000000000000000e+00  0.0000000000000000e+00  0.0000000000000000e+00  0.0000000000000000e+00  0.0000000000000000e+00  0.0000000000000000e+00  0.0000000000000000e+00  0.0000000000000000e+00  0.0000000000000000e+00  0.0000000000000000e+00  0.0000000000000000e+00  0.0000000000000000e+00  0.0000000000000000e+00  0.0000000000000000e+00  0.0000000000000000e+00  0.0000000000000000e+00  1.7325704246421833e-07  0.0000000000000000e+00  9.7899849095446006e-08  0.0000000000000000e+00  0.0000000000000000e+00  1.5372631026437171e+01  0.0000000000000000e+00  1.2342601790890621e+07  1.2631475357866742e+07  1.8700352182859506e+07  1.2160015972103814e+07  1.7618357157429468e+07  8.2693026554491781e+06  1.6324433542895883e+07  4.6186390512224948e+06  1.5005984110406708e+07  2.2010516223586584e+06  1.4623693520396829e+07  -2.0669333308576283e+05  1.5492134811889265e+07  -2.0340824508616864e+06  1.6415334342027659e+07  -2.7185397217579815e+06  1.7683603998267271e+07  -2.8868098960254760e+06  1.9708405183985818e+07  -2.1919114765404440e+06  2.3531007344793066e+07  -3.0243098640757930e+06  3.6508867471537232e+07  -1.0697758131654274e+07  6.7335997666993812e+07  -2.5056211225725200e+07  1.1527398155423620e+08  -1.5620310160205912e+07  2.5624452537119156e+08  1.3423172648159888e+01  0.0000000000000000e+00  1.2631475328175204e+07  1.3094033185166160e+07  3.1321805587058761e+06  -1.6926456077416803e+05  -6.8893919026604956e+06  -5.8080720152342301e+06  -1.0747183015112696e+07  -8.2217981618906213e+06  -1.0668749466706065e+07  -8.5643918351465687e+06  -1.0995572175835827e+07  -7.5617106269634264e+06  -1.1023835079072377e+07  -7.8974427919867318e+06  -1.0214410926633522e+07  -8.7559682121347170e+06  -1.0473007988164632e+07  -9.4081774996186420e+06  -1.1044028248963172e+07  -1.0816562609119140e+07  -1.3513851826601703e+07  -8.8218274363458883e+06  -2.4732837672970872e+07  -3.0088845043119593e+06  -4.1319329430530295e+07  5.7851537576479814e+05  -3.7222494880801253e+07  -2.3789041305131402e+07  -1.5620319817604134e+07  1.1665283823580964e+01  -1.4736089450782126e-08  1.8700352162740678e+07  3.1321805620949911e+06  -3.6621990008195583e+05  -6.8081131799639091e+06  1.1181325000764402e+06  -5.0717661007752484e+06  5.3605457763303658e+06  -1.3608254068160024e+06  9.1732503322254512e+06  -1.2923572870250309e+06  1.2861368389381928e+07  -1.7991346172484446e+06  1.4104586354221547e+07  -1.5922104619037204e+06  1.5296448529506698e+07  -2.9570864076662799e+06  1.7540555531364419e+07  -4.2078472101041703e+06  1.8274577369864985e+07  -5.3092396656218730e+06  2.2006152840909559e+07  -1.2132917673099790e+07  3.5741784819406509e+07  -2.1699095327345446e+07  5.3598458016196273e+07  -3.7160203368583836e+07  6.1985366049334303e+07  -3.7222494222745299e+07  1.1527398344303015e+08  1.0085982782489298e+01  0.0000000000000000e+00  1.2160015885662748e+07  -1.6926453764548348e+05  -6.8081131873172782e+06  6.2024242605853709e+05  -4.4677618947149236e+06  1.7471032703285641e+06  -2.6220814622066035e+06  9.9428101369735913e+05  -5.3051308168811006e+06  7.9224578378706507e+05  -6.7310215675691795e+06  -1.3260947871208903e+06  -6.4394237727625519e+06  -2.3811823493198366e+06  -7.4728734467348903e+06  -2.0361603063678658e+06  -7.5445508942093113e+06  -3.5765285786356870e+06  -5.5653444464372145e+06  -3.5725976927474434e+06  -9.7886584499788024e+06  1.6081483115621777e+06  -2.3887247599713556e+07  5.2984488590333331e+06  -3.5286734807774954e+07  1.4266104526766142e+07  -3.7160213539998017e+07  5.7852224437375832e+05  -2.5056219304129507e+07  8.6727449826384611e+00  -8.6113726677796466e-11  1.7618357123127338e+07  -6.8893918566773767e+06  1.1181325077335928e+06  -4.4677618980941204e+06  2.7578318767808490e+06  -2.3130918044470809e+06  4.4620595992047070e+06  -4.5042804312160490e+06  7.4808197720466508e+06  -4.3927636563875107e+06  8.2553350572959008e+06  -3.6137417610633941e+06  1.0346040917919697e+07  -5.1247483589614825e+06  1.3082877887709429e+07  -6.0555692109062932e+06  1.3422644139504161e+07  -5.5876293191082319e+06  1.4099134596259989e+07  -9.3882685490837116e+06  2.3500867239008926e+07  -1.5875589973644877e+07  3.8676868995220169e+07  -2.2936734729829185e+07  4.5497941394045576e+07  -3.5286747111698516e+07  5.3598469598512471e+07  -4.1319330690221936e+07  6.7335997035313800e+07  7.4134987588913841e+00  0.0000000000000000e+00  8.2693025343606127e+06  -5.8080719455916137e+06  -5.0717661627357649e+06  1.7471032850699420e+06  -2.3130918106829999e+06  3.6661280173660819e+06  -4.7766052477220623e+06  4.4584868647092357e+06  -4.8133544302033009e+06  2.3258115205511185e+06  -4.9997985316883167e+06  2.2081460007867166e+06  -6.8135922536721900e+06  2.1450101168093416e+06  -6.9005464440987129e+06  4.1075210808807448e+05  -5.2967732286984697e+06  -1.0274917854701524e+06  -5.7867001942575555e+06  1.6702870333338364e+06  -1.3933310869128745e+07  3.4168153410089402e+06  -2.0928439507762194e+07  8.0407425291203484e+06  -2.2936764189140204e+07  5.2984716241347576e+06  -2.1699103991345152e+07  -3.0088854926216779e+06  -1.0697760867250733e+07  6.2966296684286664e+00  0.0000000000000000e+00  1.6324433519186860e+07  -1.0747182944809744e+07  5.3605457693909919e+06  -2.6220814361322513e+06  4.4620596038775491e+06  -4.7766052532194601e+06  5.1463961188626420e+06  -4.5765494437422827e+06  4.8353381750587495e+06  -4.8137071710736612e+06  7.6047327015696261e+06  -6.1669537511531198e+06  9.3219281476213224e+06  -5.9806264294195324e+06  1.0086949563801620e+07  -6.0714583418275639e+06  1.0854849312820079e+07  -7.1319468699502507e+06  1.4128691060249168e+07  -1.1276938359720379e+07  2.3824507490446169e+07  -1.4698395739384372e+07  2.9303836238998264e+07  -2.0928490694586121e+07  3.8676911180284120e+07  -2.3887256096665911e+07  3.5741777306835152e+07  -2.4732829550334189e+07  3.6508866170802176e+07  5.3109783198385223e+00  0.0000000000000000e+00  4.6186388972161738e+06  -8.2217980628102012e+06  -1.3608255097984672e+06  9.9428105162581720e+05  -4.5042804878052538e+06  4.4584868889540639e+06  -4.5765494542815760e+06  4.1562419045439698e+06  -4.9959463406920945e+06  5.5337550738029750e+06  -6.2726634054981880e+06  4.3296264336680686e+06  -5.9565869305417733e+06  3.5430610000006533e+06  -6.5854972400048757e+06  3.0360993026468693e+06  -5.6668989735322287e+06  1.9089954984863221e+06  -7.4485276572541296e+06  3.3553277500441326e+06  -1.3424766959706156e+07  4.7063308568735560e+06  -1.4698491128324188e+07  3.4168920418616966e+06  -1.5875606925838951e+07  1.6081302537450434e+06  -1.2132903904885877e+07  -8.8218289902147464e+06  -3.0243154404764557e+06  4.4458408070729227e+00  -2.1626249052091783e-08  1.5005984101265965e+07  -1.0668749365260368e+07  9.1732503086087871e+06  -5.3051307799551552e+06  7.4808197957119495e+06  -4.8133544245461151e+06  4.8353381821099222e+06  -4.9959463454408478e+06  6.2373624405939467e+06  -6.1875773881750917e+06  6.0149279520687610e+06  -5.7504746563373012e+06  8.0972074254684318e+06  -7.2638262830032213e+06  9.6408875746580511e+06  -6.6499090611265311e+06  8.5882504524282496e+06  -6.7176615333552556e+06  1.3542906924568359e+07  -1.0456260147552248e+07  1.9368026826726072e+07  -1.3424930033110691e+07  2.3824641428369895e+07  -1.3933334392452504e+07  2.3500828044203866e+07  -9.7886237923292294e+06  2.2006147081392776e+07  -1.3513857393742351e+07  2.3531011018127590e+07  3.6909688586215545e+00  0.0000000000000000e+00  2.2010514428052222e+06  -8.5643917172845453e+06  -1.2923574552213824e+06  7.9224587936305080e+05  -4.3927637675485583e+06  2.3258115575983408e+06  -4.8137072213117024e+06  5.5337551024657097e+06  -6.1875774054634068e+06  5.2618573335789116e+06  -5.6376841708009820e+06  6.6754079143246366e+06  -7.6870348439971907e+06  5.8112463162850533e+06  -6.1461808437638748e+06  2.9298609703246574e+06  -4.2826310767463408e+06  3.5061080964559619e+06  -9.8827420356657468e+06  5.6044467010791916e+06  -1.0456531329588342e+07  3.3555521971760239e+06  -1.1276975740328610e+07  1.6702112128916823e+06  -9.3882042030747272e+06  -3.5726084111030209e+06  -5.3092572667113096e+06  -1.0816550550837239e+07  -2.1919151430312856e+06  3.0365690916419119e+00  -3.9598199541539497e-09  1.4623693531028984e+07  -1.0995572067772232e+07  1.2861368387981461e+07  -6.7310215195622500e+06  8.2553350673789810e+06  -4.9997985032691592e+06  7.6047327369196843e+06  -6.2726634210781371e+06  6.0149279705848610e+06  -5.6376841767931338e+06  7.4642416935623372e+06  -8.0984299306404768e+06  7.1706219812265579e+06  -5.7701676091585765e+06  6.7681774133046903e+06  -5.3839989912882885e+06  7.8587858474071305e+06  -8.5055935198940933e+06  1.4164048714979738e+07  -9.8831632770303190e+06  1.3543263379858045e+07  -7.4485791183167575e+06  1.4128553277946165e+07  -5.7865807254676092e+06  1.4099114781907380e+07  -5.5653764573063748e+06  1.8274601821596812e+07  -1.1044029623146219e+07  1.9708401053503845e+07  2.4733045036991586e+00  0.0000000000000000e+00  -2.0669356063376222e+05  -7.5617104656691207e+06  -1.7991348583907783e+06  -1.3260946643755133e+06  -3.6137419160618484e+06  2.2081460886319606e+06  -6.1669538816788075e+06  4.3296264922552845e+06  -5.7504747135280846e+06  6.6754079510623766e+06  -8.0984299613618013e+06  6.3971739150826186e+06  -5.0287067740339264e+06  5.6725666793478932e+06  -6.7207266630354244e+06  4.8751080688842610e+06  -6.3092487902441928e+06  5.8680602565085981e+06  -8.5062067398986723e+06  3.5066395723340898e+06  -6.7177311116125938e+06  1.9087626260189742e+06  -7.1317459051356632e+06  -1.0275232460180732e+06  -5.5876928573944280e+06  -3.5764801283814735e+06  -4.2078526828700909e+06  -9.4081888108010720e+06  -2.8868065190286362e+06  1.9922929810262573e+00  -3.0164166494948841e-07  1.5492134863929829e+07  -1.1023834969042428e+07  1.4104586357134556e+07  -6.4394236893141167e+06  1.0346040942598181e+07  -6.8135922452871995e+06  9.3219282096221074e+06  -5.9565869318434875e+06  8.0972074818793926e+06  -7.6870348933973573e+06  7.1706220292826099e+06  -5.0287067843139665e+06  6.4279893918708442e+06  -8.4544414839159139e+06  7.2650224867753033e+06  -4.4010380479405671e+06  6.1987346569737541e+06  -6.3100699078350021e+06  7.8595212596230637e+06  -4.2827156989313290e+06  8.5878850031689368e+06  -5.6665797849238124e+06  1.0854803480081091e+07  -5.2968847103884928e+06  1.3422731105018580e+07  -7.5445569995308593e+06  1.7540529002149172e+07  -1.0472992896908626e+07  1.7683604423727307e+07  1.5851080443938999e+00  0.0000000000000000e+00  -2.0340827505878052e+06  -7.8974425990594439e+06  -1.5922107615775808e+06  -2.3811821831400632e+06  -5.1247486180824377e+06  2.1450102801794801e+06  -5.9806266287305746e+06  3.5430611118466360e+06  -7.2638264533036994e+06  5.8112464246962806e+06  -5.7701676918978132e+06  5.6725667223649304e+06  -8.4544415396732837e+06  7.2753297027778765e+06  -2.6557893556901519e+06  8.5975279471098597e+05  -4.4020431397095341e+06  4.8760433871621601e+06  -5.3840960391256036e+06  2.9293347091505360e+06  -6.6494436763692256e+06  3.0360402090643900e+06  -6.0716457566320142e+06  4.1089854668794532e+05  -6.0555796447608266e+06  -2.0362108559998244e+06  -2.9570579660473708e+06  -8.7559654572670497e+06  -2.7185486597768385e+06  1.2437786999365266e+00  0.0000000000000000e+00  1.6415334435424881e+07  -1.0214410785427518e+07  1.5296448548923714e+07  -7.4728733763706172e+06  1.3082877975502234e+07  -6.9005464465199159e+06  1.0086949656122198e+07  -6.5854972842334807e+06  9.6408877158578988e+06  -6.1461809143572776e+06  6.7681775178405959e+06  -6.7207267831436768e+06  7.2650226450837245e+06  -2.6557894217754696e+06  -2.9008027473041747e+05  -2.6569032007381818e+06  7.2661067936540609e+06  -6.7208298615534008e+06  6.7674882413906883e+06  -6.1455563752111886e+06  9.6408191030997559e+06  -6.5857840436881725e+06  1.0087176000112148e+07  -6.9005571385240797e+06  1.3082788116121544e+07  -7.4728191198999798e+06  1.5296453753109660e+07  -1.0214430305165080e+07  1.6415340978065427e+07  9.6078943915232318e-01  0.0000000000000000e+00  -2.7185401148733702e+06  -8.7559679704411309e+06  -2.9570868362526423e+06  -2.0361600315198735e+06  -6.0555696031133942e+06  4.1075234531547682e+05  -6.0714586683812765e+06  3.0360995494498247e+06  -6.6499093805784984e+06  2.9298611809775871e+06  -5.3839992644220153e+06  4.8751083148924820e+06  -4.4010382419987824e+06  8.5975279466358491e+05  -2.6569031346242204e+06  7.2764693790195389e+06  -8.4545472149659004e+06  5.6717532948694611e+06  -5.7694057529679462e+06  5.8111745840888536e+06  -7.2642280162025718e+06  3.5433820083389813e+06  -5.9806356710001780e+06  2.1448650042484845e+06  -5.1246601728375461e+06  -2.3811711583512309e+06  -1.5922511225623714e+06  -7.8974263741714107e+06  -2.0340805262955544e+06  7.2908023890322271e-01  -1.5406718191165367e-08  1.7683604148954097e+07  -1.0473007837235169e+07  1.7540555634340979e+07  -7.5445508616627827e+06  1.3422644292618027e+07  -5.2967732643997194e+06  1.0854849522780500e+07  -5.6668991154252207e+06  8.5882506889647134e+06  -4.2826312075372348e+06  7.8587860669627273e+06  -6.3092489029585132e+06  6.1987346568854218e+06  -4.4020429455331191e+06  7.2661066353605995e+06  -8.4545471592149772e+06  6.4271291843204265e+06  -5.0278637280031685e+06  7.1705510606523482e+06  -7.6875399575966904e+06  8.0976207876581373e+06  -5.9565881921556480e+06  9.3217134198567364e+06  -6.8134585735778678e+06  1.0346060917284505e+07  -6.4394919386632778e+06  1.4104615133345161e+07  -1.1023825309099648e+07  1.5492124145623902e+07  5.4204655811978919e-01  0.0000000000000000e+00  -2.8868104634782337e+06  -9.4081771282498389e+06  -4.2078478501718454e+06  -3.5765281838126266e+06  -5.5876298665939327e+06  -1.0274914222867473e+06  -7.1319473786943676e+06  1.9089958315022665e+06  -6.7176618998080855e+06  3.5061082807775298e+06  -8.5055937395482883e+06  5.8680602564521777e+06  -6.3100697949419003e+06  4.8760431410007747e+06  -6.7208297415102655e+06  5.6717532518293308e+06  -5.0278637177229794e+06  6.3971039552568682e+06  -8.0989979230784066e+06  6.6758898067517038e+06  -5.7504662295462824e+06  4.3293401663411940e+06  -6.1667728815752156e+06  2.2081797826773156e+06  -3.6138490861760899e+06  -1.3260485156928522e+06  -1.7991166327075497e+06  -7.5617359767100010e+06  -2.0668842560108998e+05  3.9353935427679165e-01  -4.1149278689273980e-09  1.9708405442374602e+07  -1.1044028084927540e+07  1.8274577544913519e+07  -5.5653443917812528e+06  1.4099134800570950e+07  -5.7867002359801708e+06  1.4128691287819888e+07  -7.4485276740682898e+06  1.3542907017982097e+07  -9.8827419609380327e+06  1.4164048714827418e+07  -8.5062065201858822e+06  7.8595210399858579e+06  -5.3840957657921417e+06  6.7674881370165749e+06  -5.7694056701537939e+06  7.1705510126345837e+06  -8.0989978923511971e+06  7.4647489385988591e+06  -5.6376680762989772e+06  6.0145863914658278e+06  -6.2724409299177974e+06  7.6047824193081073e+06  -4.9999482147348644e+06  8.2554004887696449e+06  -6.7309890422978541e+06  1.2861322295204306e+07  -1.0995559738616455e+07  1.4623700523764038e+07  2.7786505044205767e-01  0.0000000000000000e+00  -2.1919123214382026e+06  -1.0816562100778557e+07  -5.3092404974859664e+06  -3.5725972538069962e+06  -9.3882691949313506e+06  1.6702873715455011e+06  -1.1276938804584440e+07  3.3553278730482385e+06  -1.0456260353141457e+07  5.6044467004954852e+06  -9.8831633510901108e+06  3.5066393879846600e+06  -4.2827155682420060e+06  2.9293344981938852e+06  -6.1455563049022360e+06  5.8111744755003154e+06  -7.6875399082898609e+06  6.6758897699697493e+06  -5.6376680703104651e+06  5.2614948532340210e+06  -6.1873311883548042e+06  5.5338184926661272e+06  -4.8138961787606701e+06  2.3258955784728210e+06  -4.3927159869052107e+06  7.9217626355845248e+05  -1.2923398575323592e+06  -8.5643738626758866e+06  2.2010383063572911e+06  1.8978556822761949e-01  0.0000000000000000e+00  2.3531007668578949e+07  -1.3513851477320654e+07  2.2006152980388988e+07  -9.7886582645708490e+06  2.3500867424153358e+07  -1.3933310763965212e+07  2.3824507587492872e+07  -1.3424766767604154e+07  1.9368026826411642e+07  -1.0456531122927113e+07  1.3543263285482038e+07  -6.7177307450965187e+06  8.5878847669999171e+06  -6.6494433563868087e+06  9.6408189623858090e+06  -7.2642278455401100e+06  8.0976207314594034e+06  -5.7504661722405646e+06  6.0145863729950367e+06  -6.1873311710603116e+06  6.2374312632491561e+06  -4.9961584706248334e+06  4.8354353972121459e+06  -4.8132910926985480e+06  7.4807262039958928e+06  -5.3051065055516735e+06  9.1732804831492603e+06  -1.0668775328118863e+07  1.5005987161260214e+07  1.2451816458951032e-01  0.0000000000000000e+00  -3.0243110366807636e+06  -8.8218268370673582e+06  -1.2132918704749256e+07  1.6081487379991584e+06  -1.5875590671401275e+07  3.4168155484114215e+06  -1.4698396116033074e+07  4.7063308557915911e+06  -1.3424930224764891e+07  3.3555520737295779e+06  -7.4485791004453637e+06  1.9087622927167057e+06  -5.6665796438086480e+06  3.0360399613018143e+06  -6.5857840003100140e+06  3.5433818958171089e+06  -5.9565881913086353e+06  4.3293401074955482e+06  -6.2724409144721478e+06  5.5338184639567435e+06  -4.9961584658820536e+06  4.1563439279994410e+06  -4.5764768997981222e+06  4.4583754173681270e+06  -4.5042521581716882e+06  9.9432464080249635e+05  -1.3608666103140051e+06  -8.2217931232835697e+06  4.6186480766517650e+06  7.7736168746032952e-02  1.1029025241772487e-08  3.6508867710563727e+07  -2.4732836995195240e+07  3.5741785005785346e+07  -2.3887247320202615e+07  3.8676869202505231e+07  -2.0928439210249051e+07  2.9303836236610543e+07  -1.4698490747124154e+07  2.3824641330157563e+07  -1.1276975295931492e+07  1.4128553049423913e+07  -7.1317453955855612e+06  1.0854803271606391e+07  -6.0716454283601101e+06  1.0087175909340193e+07  -5.9806354704563199e+06  9.3217133587538153e+06  -6.1667727504781699e+06  7.6047823842750723e+06  -4.8138961283686031e+06  4.8354353902100604e+06  -4.5764768892542394e+06  5.1462779266941072e+06  -4.7765742955106394e+06  4.4621132593509229e+06  -2.6221339686866431e+06  5.3605504411607506e+06  -1.0747161782900406e+07  1.6324422345809761e+07  4.5567514931451378e-02  0.0000000000000000e+00  -1.0697759876026068e+07  -3.0088836170820296e+06  -2.1699096712177675e+07  5.2984492244799957e+06  -2.2936735471684746e+07  8.0407425304224966e+06  -2.0928490992834266e+07  3.4168918290391709e+06  -1.3933334494551722e+07  1.6702108762120202e+06  -5.7865806833044440e+06  -1.0275236111138763e+06  -5.2968846776246214e+06  4.1089830627750367e+05  -6.9005571390190944e+06  2.1448648385125063e+06  -6.8134585837296676e+06  2.2081796936300774e+06  -4.9999482438860657e+06  2.3258955410329388e+06  -4.8132910985351810e+06  4.4583753930699071e+06  -4.7765742900182242e+06  3.6661855381393656e+06  -2.3131515727618337e+06  1.7471078210650221e+06  -5.0717364055000627e+06  -5.8080913410011334e+06  8.2693013625376858e+06  2.4596209642299454e-02  0.0000000000000000e+00  6.7335997684992045e+07  -4.1319328366322473e+07  5.3598458351373464e+07  -3.5286734197087750e+07  4.5497941380622886e+07  -2.2936763427143786e+07  3.8676910980095923e+07  -1.5875606226902138e+07  2.3500827852052696e+07  -9.3882035598643515e+06  1.4099114578653684e+07  -5.5876923053514743e+06  1.3422730957976293e+07  -6.0555792462463016e+06  1.3082788034031207e+07  -5.1246599090131335e+06  1.0346060896182224e+07  -3.6138489286561795e+06  8.2554004803242171e+06  -4.3927158747840980e+06  7.4807261808267189e+06  -4.5042521013687719e+06  4.4621132547381027e+06  -2.3131515665200525e+06  2.7578362244787668e+06  -4.4677263123682663e+06  1.1181068102547594e+06  -6.8893934649347132e+06  1.7618366525581896e+07  1.1861598014226201e-02  0.0000000000000000e+00  -2.5056214234730024e+07  5.7851658812076633e+05  -3.7160204861885086e+07  1.4266104508120637e+07  -3.5286747791268975e+07  5.29847121826032