<?xml version="1.0"?>
<VTKFile type="UnstructuredGrid"  version="0.1"  >
<UnstructuredGrid>
<Piece  NumberOfPoints="961" NumberOfCells="1800">
<Points>
<DataArray  type="Float64"  NumberOfComponents="3"  format="ascii">-1 -1 0  -0.9333333333333333 -1 0  -0.8666666666666667 -1 0  -0.8 -1 0  -0.7333333333333334 -1 0  -0.6666666666666667 -1 0  -0.6 -1 0  -0.5333333333333333 -1 0  -0.4666666666666667 -1 0  -0.4 -1 0  -0.3333333333333334 -1 0  -0.2666666666666667 -1 0  -0.2 -1 0  -0.1333333333333333 -1 0  -0.06666666666666665 -1 0  0 -1 0  0.06666666666666665 -1 0  0.1333333333333333 -1 0  0.2 -1 0  0.2666666666666666 -1 0  0.3333333333333333 -1 0  0.3999999999999999 -1 0  0.4666666666666666 -1 0  0.5333333333333334 -1 0  0.6000000000000001 -1 0  0.6666666666666667 -1 0  0.7333333333333334 -1 0  0.8 -1 0  0.8666666666666667 -1 0  0.9333333333333333 -1 0  1 -1 0  -1 -0.9333333333333333 0  -0.9333333333333333 -0.9333333333333333 0  -0.8666666666666667 -0.9333333333333333 0  -0.8 -0.9333333333333333 0  -0.7333333333333334 -0.9333333333333333 0  -0.6666666666666667 -0.9333333333333333 0  -0.6 -0.9333333333333333 0  -0.5333333333333333 -0.9333333333333333 0  -0.4666666666666667 -0.9333333333333333 0  -0.4 -0.9333333333333333 0  -0.3333333333333334 -0.9333333333333333 0  -0.2666666666666667 -0.9333333333333333 0  -0.2 -0.9333333333333333 0  -0.1333333333333333 -0.9333333333333333 0  -0.06666666666666665 -0.9333333333333333 0  0 -0.9333333333333333 0  0.06666666666666665 -0.9333333333333333 0  0.1333333333333333 -0.9333333333333333 0  0.2 -0.9333333333333333 0  0.2666666666666666 -0.9333333333333333 0  0.3333333333333333 -0.9333333333333333 0  0.3999999999999999 -0.9333333333333333 0  0.4666666666666666 -0.9333333333333333 0  0.5333333333333334 -0.9333333333333333 0  0.6000000000000001 -0.9333333333333333 0  0.6666666666666667 -0.9333333333333333 0  0.7333333333333334 -0.9333333333333333 0  0.8 -0.9333333333333333 0  0.8666666666666667 -0.9333333333333333 0  0.9333333333333333 -0.9333333333333333 0  1 -0.9333333333333333 0  -1 -0.8666666666666667 0  -0.9333333333333333 -0.8666666666666667 0  -0.8666666666666667 -0.8666666666666667 0  -0.8 -0.8666666666666667 0  -0.7333333333333334 -0.8666666666666667 0  -0.6666666666666667 -0.8666666666666667 0  -0.6 -0.8666666666666667 0  -0.5333333333333333 -0.8666666666666667 0  -0.4666666666666667 -0.8666666666666667 0  -0.4 -0.8666666666666667 0  -0.3333333333333334 -0.8666666666666667 0  -0.2666666666666667 -0.8666666666666667 0  -0.2 -0.8666666666666667 0  -0.1333333333333333 -0.8666666666666667 0  -0.06666666666666665 -0.8666666666666667 0  0 -0.8666666666666667 0  0.06666666666666665 -0.8666666666666667 0  0.1333333333333333 -0.8666666666666667 0  0.2 -0.8666666666666667 0  0.2666666666666666 -0.8666666666666667 0  0.3333333333333333 -0.8666666666666667 0  0.3999999999999999 -0.8666666666666667 0  0.4666666666666666 -0.8666666666666667 0  0.5333333333333334 -0.8666666666666667 0  0.6000000000000001 -0.8666666666666667 0  0.6666666666666667 -0.8666666666666667 0  0.7333333333333334 -0.8666666666666667 0  0.8 -0.8666666666666667 0  0.8666666666666667 -0.8666666666666667 0  0.9333333333333333 -0.8666666666666667 0  1 -0.8666666666666667 0  -1 -0.8 0  -0.9333333333333333 -0.8 0  -0.8666666666666667 -0.8 0  -0.8 -0.8 0  -0.7333333333333334 -0.8 0  -0.6666666666666667 -0.8 0  -0.6 -0.8 0  -0.5333333333333333 -0.8 0  -0.4666666666666667 -0.8 0  -0.4 -0.8 0  -0.3333333333333334 -0.8 0  -0.2666666666666667 -0.8 0  -0.2 -0.8 0  -0.1333333333333333 -0.8 0  -0.06666666666666665 -0.8 0  0 -0.8 0  0.06666666666666665 -0.8 0  0.1333333333333333 -0.8 0  0.2 -0.8 0  0.2666666666666666 -0.8 0  0.3333333333333333 -0.8 0  0.3999999999999999 -0.8 0  0.4666666666666666 -0.8 0  0.5333333333333334 -0.8 0  0.6000000000000001 -0.8 0  0.6666666666666667 -0.8 0  0.7333333333333334 -0.8 0  0.8 -0.8 0  0.8666666666666667 -0.8 0  0.9333333333333333 -0.8 0  1 -0.8 0  -1 -0.7333333333333334 0  -0.9333333333333333 -0.7333333333333334 0  -0.8666666666666667 -0.7333333333333334 0  -0.8 -0.7333333333333334 0  -0.7333333333333334 -0.7333333333333334 0  -0.6666666666666667 -0.7333333333333334 0  -0.6 -0.7333333333333334 0  -0.5333333333333333 -0.7333333333333334 0  -0.4666666666666667 -0.7333333333333334 0  -0.4 -0.7333333333333334 0  -0.3333333333333334 -0.7333333333333334 0  -0.2666666666666667 -0.7333333333333334 0  -0.2 -0.7333333333333334 0  -0.1333333333333333 -0.7333333333333334 0  -0.06666666666666665 -0.7333333333333334 0  0 -0.7333333333333334 0  0.06666666666666665 -0.7333333333333334 0  0.1333333333333333 -0.7333333333333334 0  0.2 -0.7333333333333334 0  0.2666666666666666 -0.7333333333333334 0  0.3333333333333333 -0.7333333333333334 0  0.3999999999999999 -0.7333333333333334 0  0.4666666666666666 -0.7333333333333334 0  0.5333333333333334 -0.7333333333333334 0  0.6000000000000001 -0.7333333333333334 0  0.6666666666666667 -0.7333333333333334 0  0.7333333333333334 -0.7333333333333334 0  0.8 -0.7333333333333334 0  0.8666666666666667 -0.7333333333333334 0  0.9333333333333333 -0.7333333333333334 0  1 -0.7333333333333334 0  -1 -0.6666666666666667 0  -0.9333333333333333 -0.6666666666666667 0  -0.8666666666666667 -0.6666666666666667 0  -0.8 -0.6666666666666667 0  -0.7333333333333334 -0.6666666666666667 0  -0.6666666666666667 -0.6666666666666667 0  -0.6 -0.6666666666666667 0  -0.5333333333333333 -0.6666666666666667 0  -0.4666666666666667 -0.6666666666666667 0  -0.4 -0.6666666666666667 0  -0.3333333333333334 -0.6666666666666667 0  -0.2666666666666667 -0.6666666666666667 0  -0.2 -0.6666666666666667 0  -0.1333333333333333 -0.6666666666666667 0  -0.06666666666666665 -0.6666666666666667 0  0 -0.6666666666666667 0  0.06666666666666665 -0.6666666666666667 0  0.1333333333333333 -0.6666666666666667 0  0.2 -0.6666666666666667 0  0.2666666666666666 -0.6666666666666667 0  0.3333333333333333 -0.6666666666666667 0  0.3999999999999999 -0.6666666666666667 0  0.4666666666666666 -0.6666666666666667 0  0.5333333333333334 -0.6666666666666667 0  0.6000000000000001 -0.6666666666666667 0  0.6666666666666667 -0.6666666666666667 0  0.7333333333333334 -0.6666666666666667 0  0.8 -0.6666666666666667 0  0.8666666666666667 -0.6666666666666667 0  0.9333333333333333 -0.6666666666666667 0  1 -0.6666666666666667 0  -1 -0.6 0  -0.9333333333333333 -0.6 0  -0.8666666666666667 -0.6 0  -0.8 -0.6 0  -0.7333333333333334 -0.6 0  -0.6666666666666667 -0.6 0  -0.6 -0.6 0  -0.5333333333333333 -0.6 0  -0.4666666666666667 -0.6 0  -0.4 -0.6 0  -0.3333333333333334 -0.6 0  -0.2666666666666667 -0.6 0  -0.2 -0.6 0  -0.1333333333333333 -0.6 0  -0.06666666666666665 -0.6 0  0 -0.6 0  0.06666666666666665 -0.6 0  0.1333333333333333 -0.6 0  0.2 -0.6 0  0.2666666666666666 -0.6 0  0.3333333333333333 -0.6 0  0.3999999999999999 -0.6 0  0.4666666666666666 -0.6 0  0.5333333333333334 -0.6 0  0.6000000000000001 -0.6 0  0.6666666666666667 -0.6 0  0.7333333333333334 -0.6 0  0.8 -0.6 0  0.8666666666666667 -0.6 0  0.9333333333333333 -0.6 0  1 -0.6 0  -1 -0.5333333333333333 0  -0.9333333333333333 -0.5333333333333333 0  -0.8666666666666667 -0.5333333333333333 0  -0.8 -0.5333333333333333 0  -0.7333333333333334 -0.5333333333333333 0  -0.6666666666666667 -0.5333333333333333 0  -0.6 -0.5333333333333333 0  -0.5333333333333333 -0.5333333333333333 0  -0.4666666666666667 -0.5333333333333333 0  -0.4 -0.5333333333333333 0  -0.3333333333333334 -0.5333333333333333 0  -0.2666666666666667 -0.5333333333333333 0  -0.2 -0.5333333333333333 0  -0.1333333333333333 -0.5333333333333333 0  -0.06666666666666665 -0.5333333333333333 0  0 -0.5333333333333333 0  0.06666666666666665 -0.5333333333333333 0  0.1333333333333333 -0.5333333333333333 0  0.2 -0.5333333333333333 0  0.2666666666666666 -0.5333333333333333 0  0.3333333333333333 -0.5333333333333333 0  0.3999999999999999 -0.5333333333333333 0  0.4666666666666666 -0.5333333333333333 0  0.5333333333333334 -0.5333333333333333 0  0.6000000000000001 -0.5333333333333333 0  0.6666666666666667 -0.5333333333333333 0  0.7333333333333334 -0.5333333333333333 0  0.8 -0.5333333333333333 0  0.8666666666666667 -0.5333333333333333 0  0.9333333333333333 -0.5333333333333333 0  1 -0.5333333333333333 0  -1 -0.4666666666666667 0  -0.9333333333333333 -0.4666666666666667 0  -0.8666666666666667 -0.4666666666666667 0  -0.8 -0.4666666666666667 0  -0.7333333333333334 -0.4666666666666667 0  -0.6666666666666667 -0.4666666666666667 0  -0.6 -0.4666666666666667 0  -0.5333333333333333 -0.4666666666666667 0  -0.4666666666666667 -0.4666666666666667 0  -0.4 -0.4666666666666667 0  -0.3333333333333334 -0.4666666666666667 0  -0.2666666666666667 -0.4666666666666667 0  -0.2 -0.4666666666666667 0  -0.1333333333333333 -0.4666666666666667 0  -0.06666666666666665 -0.4666666666666667 0  0 -0.4666666666666667 0  0.06666666666666665 -0.4666666666666667 0  0.1333333333333333 -0.4666666666666667 0  0.2 -0.4666666666666667 0  0.2666666666666666 -0.4666666666666667 0  0.3333333333333333 -0.4666666666666667 0  0.3999999999999999 -0.4666666666666667 0  0.4666666666666666 -0.4666666666666667 0  0.5333333333333334 -0.4666666666666667 0  0.6000000000000001 -0.4666666666666667 0  0.6666666666666667 -0.4666666666666667 0  0.7333333333333334 -0.4666666666666667 0  0.8 -0.4666666666666667 0  0.8666666666666667 -0.4666666666666667 0  0.9333333333333333 -0.4666666666666667 0  1 -0.4666666666666667 0  -1 -0.4 0  -0.9333333333333333 -0.4 0  -0.8666666666666667 -0.4 0  -0.8 -0.4 0  -0.7333333333333334 -0.4 0  -0.6666666666666667 -0.4 0  -0.6 -0.4 0  -0.5333333333333333 -0.4 0  -0.4666666666666667 -0.4 0  -0.4 -0.4 0  -0.3333333333333334 -0.4 0  -0.2666666666666667 -0.4 0  -0.2 -0.4 0  -0.1333333333333333 -0.4 0  -0.06666666666666665 -0.4 0  0 -0.4 0  0.06666666666666665 -0.4 0  0.1333333333333333 -0.4 0  0.2 -0.4 0  0.2666666666666666 -0.4 0  0.3333333333333333 -0.4 0  0.3999999999999999 -0.4 0  0.4666666666666666 -0.4 0  0.5333333333333334 -0.4 0  0.6000000000000001 -0.4 0  0.6666666666666667 -0.4 0  0.7333333333333334 -0.4 0 
[...]
<PointData  Scalars="f_24"> 
<DataArray  type="Float64"  Name="f_24"  format="ascii">0.0000000000000000e+00  0.0000000000000000e+00  0.0000000000000000e+00  0.0000000000000000e+00  0.0000000000000000e+00  0.0000000000000000e+00  0.0000000000000000e+00  0.0000000000000000e+00  0.0000000000000000e+00  0.0000000000000000e+00  0.0000000000000000e+00  0.0000000000000000e+00  0.0000000000000000e+00  0.0000000000000000e+00  0.0000000000000000e+00  0.0000000000000000e+00  0.0000000000000000e+00  0.0000000000000000e+00  0.0000000000000000e+00  0.0000000000000000e+00  0.0000000000000000e+00  0.0000000000000000e+00  0.0000000000000000e+00  0.0000000000000000e+00  0.0000000000000000e+00  -1.3748934209362461e-07  0.0000000000000000e+00  -2.4474962273861502e-08  0.0000000000000000e+00  0.0000000000000000e+00  1.5604958592453322e+01  0.0000000000000000e+00  1.0667213664425109e+07  1.0476054446846904e+07  1.5830018145132277e+07  9.6645997896564137e+06  1.4680544937396917e+07  6.0538045967787765e+06  1.3594797546412893e+07  2.7879006333554196e+06  1.2518027147239951e+07  6.7675485002638446e+05  1.2304267965779303e+07  -1.5070512701770260e+06  1.3241115808834301e+07  -3.2208886626711362e+06  1.4171026091846727e+07  -3.9283275602121013e+06  1.5385733763627365e+07  -4.2465595680926954e+06  1.7273120948922917e+07  -3.7972637531723497e+06  2.0782397715178516e+07  -4.8109498605760578e+06  3.3048212208190344e+07  -1.2431172028043374e+07  6.2772743666399896e+07  -2.6437218115023218e+07  1.0973374944804814e+08  -1.7285958905664142e+07  2.4805739160647276e+08  1.3626037923739480e+01  0.0000000000000000e+00  1.0476054410798306e+07  1.0707838356496166e+07  1.7526026020789384e+06  -8.7192598724486830e+05  -6.6351403643295569e+06  -5.2141847369183013e+06  -9.5321052205164228e+06  -6.9473006893594144e+06  -9.0722200039445069e+06  -7.0068096995552238e+06  -9.2450135429306701e+06  -5.9190853841120340e+06  -9.2306103568188865e+06  -6.1831025326468172e+06  -8.4406983578137644e+06  -6.9585882561874054e+06  -8.7090612514408156e+06  -7.5476318623986524e+06  -9.2915378105714582e+06  -8.9991217613818850e+06  -1.1756772045779387e+07  -7.4061386937060775e+06  -2.2975340979508679e+07  -2.3706731197644854e+06  -4.0077907528278351e+07  7.0391849278134658e+04  -3.7775998519123986e+07  -2.4171669559388570e+07  -1.7285968638639271e+07  1.1841582009394825e+01  -4.5341813694714232e-09  1.5830018114131069e+07  1.7526026061531918e+06  -8.2275513064575172e+05  -6.1949416024485519e+06  1.4826049251842375e+06  -4.2221510395158194e+06  5.3991087059341660e+06  -9.4752158706605155e+05  8.6691496653705221e+06  -1.2176388753402752e+06  1.1909121102459460e+07  -1.9332428034459604e+06  1.2919949132917697e+07  -1.8546445757664966e+06  1.4003633853929395e+07  -3.2332639954602653e+06  1.6226572912765617e+07  -4.4101063214226263e+06  1.7086119430632442e+07  -5.2450135066046678e+06  2.0972298418014634e+07  -1.1458125013918890e+07  3.4673985945211180e+07  -2.0528334466486476e+07  5.2208412687219329e+07  -3.5865524896949321e+07  5.9523239312731288e+07  -3.7775997886040717e+07  1.0973375137760055e+08  1.0238413426755500e+01  0.0000000000000000e+00  9.6645996926681902e+06  -8.7192596184387989e+05  -6.1949416098460555e+06  1.1018545172391126e+06  -3.6900263928160476e+06  1.9270523425171091e+06  -2.2620787589802933e+06  9.8040441423783929e+05  -4.9582616904995413e+06  8.1837532263376506e+05  -6.2904764638751736e+06  -1.1017090500216729e+06  -5.9419693397851344e+06  -2.0016791989883750e+06  -6.9316415070843529e+06  -1.5703424990916168e+06  -7.0557216945445128e+06  -3.0506443159517106e+06  -5.2091893264655825e+06  -3.1726593409559908e+06  -9.3339217134127319e+06  1.8158660805829617e+06  -2.2792464485992685e+07  5.8298537422321942e+06  -3.3532619999964919e+07  1.4678821358231591e+07  -3.5865535188581869e+07  7.0398805435410934e+04  -2.6437226253724899e+07  8.8038167379567280e+00  -6.2351931069138498e-09  1.4680544890471417e+07  -6.6351403136605676e+06  1.4826049320863544e+06  -3.6900263951166584e+06  2.7660353547741575e+06  -2.0903641581242757e+06  4.0835350279391734e+06  -4.2998797331348229e+06  6.9436921217311779e+06  -4.1956719760472542e+06  7.6558451746956976e+06  -3.4657662251902111e+06  9.6110128547051344e+06  -4.9776462033929732e+06  1.2233564502634196e+07  -5.9363454175314037e+06  1.2562167349955523e+07  -5.4642097368165730e+06  1.3211936017336411e+07  -9.0370946752615459e+06  2.2267930554108497e+07  -1.5382360520461589e+07  3.6832056449093334e+07  -2.2264612013738740e+07  4.3969105476137370e+07  -3.3532632507350482e+07  5.2208424438849546e+07  -4.0077908830430225e+07  6.2772743029499419e+07  7.5255394446630612e+00  0.0000000000000000e+00  6.0538044667612929e+06  -5.2141846614848273e+06  -4.2221511016605934e+06  1.9270523577578599e+06  -2.0903641650493236e+06  3.3712082808005074e+06  -4.5119344290204588e+06  4.2136613382378491e+06  -4.4966255026444169e+06  2.2434594671999617e+06  -4.6493167019530889e+06  2.1881424330915227e+06  -6.4003156224129191e+06  2.2337283543637032e+06  -6.5280781812754022e+06  6.5308315033743705e+05  -5.0041806710193381e+06  -7.2761747120113659e+05  -5.5069975799603667e+06  1.8332967167594791e+06  -1.3362080631533790e+07  3.6541998937777467e+06  -2.0123609407238629e+07  8.0658549355520597e+06  -2.2264641898729999e+07  5.8298768433614587e+06  -2.0528343230564468e+07  -2.3706741417817869e+06  -1.2431174758144205e+07  6.3917910394688819e+00  -6.2382127090859422e-09  1.3594797511695737e+07  -9.5321051432050895e+06  5.3991086958792023e+06  -2.2620787316972036e+06  4.0835350313567077e+06  -4.5119344335495122e+06  4.8268546473875614e+06  -4.2958884018674055e+06  4.5137547278704271e+06  -4.5416802768751457e+06  7.1150655250885272e+06  -5.8830551050608959e+06  8.7613034380762670e+06  -5.7763002533329912e+06  9.4895330629358944e+06  -5.8808138008720474e+06  1.0186932693989521e+07  -6.8560006361108683e+06  1.3334192313336838e+07  -1.0793370611873109e+07  2.2592244036805831e+07  -1.4190788521097619e+07  2.7880529086918332e+07  -2.0123661378009010e+07  3.6832099268116191e+07  -2.2792473120904043e+07  3.4673978313859858e+07  -2.2975332751077563e+07  3.3048210886969861e+07  5.3912434783589243e+00  0.0000000000000000e+00  2.7879004738045502e+06  -6.9473005838332614e+06  -9.4752169143859413e+05  9.8040445308430248e+05  -4.2998797898726715e+06  4.2136613627801463e+06  -4.2958884129311359e+06  3.9087789809226622e+06  -4.6919266253297366e+06  5.2442624985091211e+06  -5.9202011925799306e+06  4.1829436754592899e+06  -5.6605880291359685e+06  3.5166382448452213e+06  -6.2721253372847605e+06  3.0701754588447814e+06  -5.3977013400123715e+06  1.9995248282391089e+06  -7.1633364688310586e+06  3.4248042226625052e+06  -1.2855466534395110e+07  4.8343491064074505e+06  -1.4190885340529462e+07  3.6542777491258387e+06  -1.5382377709791500e+07  1.8158477405309668e+06  -1.1458111011639766e+07  -7.4061402876081821e+06  -4.8109554863373106e+06  4.5130310864614156e+00  2.1626249052091783e-08  1.2518027129279891e+07  -9.0722198959032409e+06  8.6691496367902793e+06  -4.9582616514270157e+06  6.9436921430731183e+06  -4.4966254957124870e+06  4.5137547339146147e+06  -4.6919266291447906e+06  5.8718307998235542e+06  -5.8558232960893437e+06  5.6863076239482854e+06  -5.5071157993747983e+06  7.6818765168324448e+06  -6.9836955980274826e+06  9.1230406235478241e+06  -6.3999201472947933e+06  8.0941316425315421e+06  -6.4335174481967743e+06  1.2838008836949358e+07  -1.0029692065024402e+07  1.8325617260220818e+07  -1.2855632078574879e+07  2.2592379996506508e+07  -1.3362104514822399e+07  2.2267890760801449e+07  -9.3338865361895449e+06  2.0972292565506950e+07  -1.1756777707308380e+07  2.0782401440010946e+07  3.7467505115695716e+00  0.0000000000000000e+00  6.7675466830195393e+05  -7.0068095764692733e+06  -1.2176390447291129e+06  8.1837541948723269e+05  -4.1956720870750388e+06  2.2434595047515412e+06  -4.5416803270626497e+06  5.2442625272013554e+06  -5.8558233138325261e+06  5.0082536031382624e+06  -5.3793558477221280e+06  6.4157105383367352e+06  -7.3421175626376197e+06  5.6294434053440699e+06  -5.8663389449249776e+06  2.9172913719068263e+06  -4.1034345991667137e+06  3.4663518474363401e+06  -9.4792280336218998e+06  5.5543904625775935e+06  -1.0029967339263843e+07  3.4250320588413705e+06  -1.0793408544918362e+07  1.8332197427460761e+06  -9.0370293395692650e+06  -3.1726702305455068e+06  -5.2450313518139534e+06  -8.9991095342674777e+06  -3.7972674496099595e+06  3.0824609565339913e+00  0.0000000000000000e+00  1.2304267969441446e+07  -9.2450134298150856e+06  1.1909121095360827e+07  -6.2904764132229919e+06  7.6558451816020589e+06  -4.6493166717971191e+06  7.1150655583282141e+06  -5.9202012068475978e+06  5.6863076415710831e+06  -5.3793558528095810e+06  7.1249341919794297e+06  -7.7475389492074745e+06  6.8352235496352483e+06  -5.5458858442854565e+06  6.4282882053395789e+06  -5.1903391473614965e+06  7.4543067270773035e+06  -8.1268721418552529e+06  1.3440328093550339e+07  -9.4796556432474740e+06  1.2838370676418740e+07  -7.1633887073678151e+06  1.3334052441311765e+07  -5.5068763039085446e+06  1.3211915895213215e+07  -5.2092218217479568e+06  1.7086144245407466e+07  -9.2915392116047088e+06  1.7273116751301557e+07  2.5106837144779126e+00  0.0000000000000000e+00  -1.5070514967718103e+06  -5.9190852196129970e+06  -1.9332430444239059e+06  -1.1017089259937624e+06  -3.4657663795186053e+06  2.1881425212313225e+06  -5.8830552349154102e+06  4.1829437342046900e+06  -5.5071158565331828e+06  6.4157105750210974e+06  -7.7475389803725770e+06  6.1399154064902943e+06  -4.8263968286855845e+06  5.4725840967535740e+06  -6.4274535597714381e+06  4.7419381907202741e+06  -6.0453081690237029e+06  5.6761841544852750e+06  -8.1274946239067661e+06  3.4668913510104371e+06  -6.4335880686243633e+06  1.9992884289681062e+06  -6.8557966213543033e+06  -7.2764941452931345e+05  -5.4642742219699249e+06  -3.0505951406743606e+06  -4.4101118604880935e+06  -7.5476433531449828e+06  -4.2465561222927542e+06  2.0224026335819505e+00  -4.9236619103197050e-06  1.3241115855310364e+07  -9.2306102437204514e+06  1.2919949130381856e+07  -5.9419692539320905e+06  9.6110128753973860e+06  -6.4003156119376374e+06  8.7613034973324146e+06  -5.6605880290219923e+06  7.6818765714431135e+06  -7.3421176106743654e+06  6.8352235968032340e+06  -4.8263968379810443e+06  6.1483031006186074e+06  -8.0911790669499701e+06  6.9232766846503513e+06  -4.2492322733152844e+06  5.9074487272547381e+06  -6.0461416931909127e+06  7.4550532475366648e+06  -4.1035204960952033e+06  8.0937606627626149e+06  -5.3973773227711311e+06  1.0186886160825374e+07  -5.0042938352930294e+06  1.2562255622931950e+07  -7.0557278920025816e+06  1.6226545977066915e+07  -8.7090459359892718e+06  1.5385734190579411e+07  1.6090638846917207e+00  0.0000000000000000e+00  -3.2208889585734839e+06  -6.1831023385844212e+06  -1.8546448733284215e+06  -2.0016790321458813e+06  -4.9776464607811822e+06  2.2337285179346255e+06  -5.7763004515696820e+06  3.5166383567373254e+06  -6.9836957674337933e+06  5.6294435134835346e+06  -5.5458859267944302e+06  5.4725841393657848e+06  -8.0911791229113890e+06  6.9824243922332944e+06  -2.5673024891029871e+06  9.0760945204466162e+05  -4.2502525514937984e+06  4.7428876391753163e+06  -5.1904376556752548e+06  2.9167571527952556e+06  -6.3994477218392985e+06  3.0701154673567866e+06  -5.8810040406715507e+06  6.5323179836110258e+05  -5.9363560002593603e+06  -1.5703938169290826e+06  -3.2332351132046143e+06  -6.9585854641915718e+06  -3.9283366208855482e+06  1.2625760077963222e+00  -3.7488288532471349e-09  1.4171026180990554e+07  -8.4406982157965936e+06  1.4003633868567143e+07  -6.9316414350594562e+06  1.2233564586162401e+07  -6.5280781820134316e+06  9.4895331520371120e+06  -6.2721253796576373e+06  9.1230407618236113e+06  -5.8663390135802645e+06  6.4282883075854629e+06  -6.4274536775694983e+06  6.9232768412763327e+06  -2.5673025537102930e+06  -2.6143309668116254e+05  -2.5684331652830942e+06  6.9243773746536123e+06  -6.4275583138086675e+06  6.4275886140584126e+06  -5.8657050357359052e+06  9.1229711121179163e+06  -6.2724164729306037e+06  9.4897629167833421e+06  -6.5280890356049826e+06  1.2233473368730716e+07  -6.9315863586076517e+06  1.4003639151405029e+07  -8.4407180305362046e+06  1.4171032822512312e+07  9.7530991202833262e-01  0.0000000000000000e+00  -3.9283279468423137e+06  -6.9585880153467869e+06  -3.2332644197271843e+06  -1.5703422243360050e+06  -5.9363458068527794e+06  6.5308338744129660e+05  -5.8808141249439484e+06  3.0701757045566440e+06  -6.3999204642654797e+06  2.9172915812211102e+06  -5.1903394184092730e+06  4.7419384350996241e+06  -4.2492324666998219e+06  9.0760945199799095e+05  -2.5684331006507091e+06  6.9835812924743937e+06  -8.0912863952831570e+06  5.4717584184896555e+06  -5.5451124726352468e+06  5.6293705871465225e+06  -6.9841033991773510e+06  3.5169641029579826e+06  -5.7763096304905750e+06  2.2335810464331205e+06  -4.9775566788571086e+06  -2.0016678407379226e+06  -1.8546858442906768e+06  -6.1830858684881004e+06  -3.2208867006662302e+06  7.4009887566381094e-01  -3.8516795477913417e-09  1.5385733911652563e+07  -8.7090611021111924e+06  1.6226573011751007e+07  -7.0557216613729242e+06  1.2562167498529965e+07  -5.0041807050101133e+06  1.0186932899362816e+07  -5.3977014793341756e+06  8.0941318751928033e+06  -4.1034347277768552e+06  7.4543069438631423e+06  -6.0453082804142227e+06  5.9074487271603094e+06  -4.2502523579871021e+06  6.9243772180427043e+06  -8.0912863393255705e+06  6.1474298926978251e+06  -4.8255410405063406e+06  6.8351515556193162e+06  -7.3426303079398591e+06  7.6822961235377789e+06  -5.6605893083824245e+06  8.7610854614356663e+06  -6.4001799200377865e+06  9.6110331519622616e+06  -5.9420385347379148e+06  1.2919978341488974e+07  -9.2306004377863836e+06  1.3241104975017721e+07  5.5023855947702027e-01  0.0000000000000000e+00  -4.2465601263552001e+06  -7.5476314940353194e+06  -4.4101069547512960e+06  -3.0506439223719253e+06  -5.4642102791820802e+06  -7.2761710984318610e+05  -6.8560011397967692e+06  1.9995251589034311e+06  -6.4335178108178312e+06  3.4663520300113093e+06  -8.1268723592441780e+06  5.6761841544258194e+06  -6.0461415816152254e+06  4.7428873946404830e+06  -6.4275581960802898e+06  5.4717583758536326e+06  -4.8255410312130675e+06  6.1398443893564837e+06  -7.7481155257313093e+06  6.4161997130259322e+06  -5.5071072443327298e+06  4.1826530810307954e+06  -5.8828714993452458e+06  2.1881767244962021e+06  -3.4658751693012398e+06  -1.1016620798622614e+06  -1.9332245432944125e+06  -5.9191111162026227e+06  -1.5070462841339710e+06  3.9948693996680512e-01  0.0000000000000000e+00  1.7273121206498597e+07  -9.2915376501380466e+06  1.7086119601825718e+07  -5.2091892716140253e+06  1.3211936216418097e+07  -5.5069976205864223e+06  1.3334192536934452e+07  -7.1633364856433375e+06  1.2838008928820655e+07  -9.4792279597743955e+06  1.3440328093394630e+07  -8.1274944064574949e+06  7.4550530306666428e+06  -5.1904373844250906e+06  6.4275885119760884e+06  -5.5451123900496317e+06  6.8351515084902821e+06  -7.7481154945621323e+06  7.1254491030426500e+06  -5.3793395089870337e+06  5.6859609001464471e+06  -5.9199753531641643e+06  7.1151159915683828e+06  -4.6494686458621826e+06  7.6559115917125996e+06  -6.2904434451275943e+06  1.1909074305980872e+07  -9.2450009143283758e+06  1.2304275067857208e+07  2.8206444290383847e-01  0.0000000000000000e+00  -3.7972645853730887e+06  -8.9991212587651014e+06  -5.2450143291537147e+06  -3.1726589046283262e+06  -9.0370953136529773e+06  1.8332970523957706e+06  -1.0793371050964046e+07  3.4248043444895516e+06  -1.0029692267530467e+07  5.5543904619862298e+06  -9.4796557164122369e+06  3.4668911684092903e+06  -4.1035203675882486e+06  2.9167569431711291e+06  -5.8657049673685823e+06  5.6293704788254509e+06  -7.3426302599979658e+06  6.4161996762967324e+06  -5.3793395039014947e+06  5.0078856446059207e+06  -5.8555733756296849e+06  5.2443268754218807e+06  -4.5418721402383521e+06  2.2435447954399111e+06  -4.1956235843192050e+06  8.1830475157400826e+05  -1.2176211810846804e+06  -7.0067914520230386e+06  6.7674133332188672e+05  1.9265380978337443e-01  0.0000000000000000e+00  2.0782398039835986e+07  -1.1756771701470293e+07  2.0972298553651493e+07  -9.3339215294108745e+06  2.2267930735897187e+07  -1.3362080529230809e+07  2.2592244132881410e+07  -1.2855466345624536e+07  1.8325617259892687e+07  -1.0029967135667749e+07  1.2838370583568668e+07  -6.4335877059360212e+06  8.0937604304765528e+06  -6.3994474043344744e+06  9.1229709743333403e+06  -6.9841032294039940e+06  7.6822960691425176e+06  -5.5071071870579291e+06  5.6859608825697014e+06  -5.8555733578827363e+06  5.8719006626002220e+06  -4.6921419601896079e+06  4.5138534182346510e+06  -4.4965612067266684e+06  6.9435971369003616e+06  -4.9582370101624476e+06  8.6691802673611306e+06  -9.0722462511406597e+06  1.2518030235519949e+07  1.2640058683625116e-01  0.0000000000000000e+00  -4.8109510159861157e+06  -7.4061381019197013e+06  -1.1458126035176290e+07  1.8158665041416639e+06  -1.5382361209701477e+07  3.6542000996267144e+06  -1.4190788892307634e+07  4.8343491053097202e+06  -1.2855632266887089e+07  3.4250319365672050e+06  -7.1633886894912440e+06  1.9992880980167696e+06  -5.3973771842365861e+06  3.0701152206721306e+06  -6.2724164314115187e+06  3.5169639903815356e+06  -5.6605893089567143e+06  4.1826530220225654e+06  -5.9199753390326286e+06  5.2443268466821723e+06  -4.6921419563781815e+06  3.9088825462647402e+06  -4.2958147619279800e+06  4.2135482065178594e+06  -4.2998510320908781e+06  9.8044870102649764e+05  -9.4756341310906434e+05  -6.9472955696558617e+06  2.7879097919698418e+06  7.8911000487270191e-02  0.0000000000000000e+00  3.3048212449996900e+07  -2.2975340308452431e+07  3.4673986129159734e+07  -2.2792464211796295e+07  3.6832056655917190e+07  -2.0123609115584031e+07  2.7880529084491093e+07  -1.4190884964691199e+07  2.2592379899242457e+07  -1.0793408106305582e+07  1.3334052216742398e+07  -6.8557961168516492e+06  1.0186885956944760e+07  -5.8810037148570511e+06  9.4897628292450514e+06  -5.7763094310140023e+06  8.7610854030917548e+06  -5.8828713689116584e+06  7.1151159586512521e+06  -4.5418720898942482e+06  4.5138534122403162e+06  -4.2958147508595800e+06  4.8267346689741109e+06  -4.5119030079735266e+06  4.0835894977284810e+06  -2.2621320581796034e+06  5.3991134382544886e+06  -9.5320836614745371e+06  1.3594786169454699e+07  4.6256179728988149e-02  0.0000000000000000e+00  -1.2431173751937011e+07  -2.3706722378987251e+06  -2.0528335841381837e+07  5.8298541051729592e+06  -2.2264612747258011e+07  8.0658549368676897e+06  -2.0123661670406103e+07  3.6542775377770080e+06  -1.3362104614005398e+07  1.8332194086750294e+06  -5.5068762628272055e+06  -7.2764977782614948e+05  -5.0042938042772636e+06  6.5323155803362688e+05  -6.5280890378298154e+06  2.2335808804722712e+06  -6.4001799323075488e+06  2.1881766351364618e+06  -4.6494686767607080e+06  2.2435447574890130e+06  -4.4965612138407910e+06  4.2135481819213182e+06  -4.5119030034495434e+06  3.3712666708887126e+06  -2.0904248303157350e+06  1.9270569623060622e+06  -4.2221208947016746e+06  -5.2142043500197185e+06  6.0538032772286525e+06  2.4967933747925296e-02  0.0000000000000000e+00  6.2772743688982546e+07  -4.0077906471397795e+07  5.2208413021712922e+07  -3.3532619397546273e+07  4.3969105462498806e+07  -2.2264641144749653e+07  3.6832099068481825e+07  -1.5382377019357294e+07  2.2267890571890343e+07  -9.0370287038570158e+06  1.3211915697200345e+07  -5.4642736749712741e+06  1.2562255480520373e+07  -5.9363556045371238e+06  1.2233473290991986e+07  -4.9775564166955296e+06  9.6110331349000707e+06  -3.4658750124136624e+06  7.6559115864667790e+06  -4.1956234723177841e+06  6.9435971160616307e+06  -4.2998509751360500e+06  4.0835894943718556e+06  -2.0904248233857022e+06  2.7660397681800551e+06  -3.6899902715823944e+06  1.4825788462391119e+06  -6.6351419462237777e+06  1.4680554435027422e+07  1.2040863111460886e-02  0.0000000000000000e+00  -2.6437221107692078e+07  7.0393063679446554e+04  -3.5865526379290506e+07  1.4678821339283101e+07  -3.3532633179665159e+07  5.8298764393691