<?xml version="1.0"?>
<VTKFile type="UnstructuredGrid"  version="0.1"  >
<UnstructuredGrid>
<Piece  NumberOfPoints="961" NumberOfCells="1800">
<Points>
<DataArray  type="Float64"  NumberOfComponents="3"  format="ascii">-1 -1 0  -0.9333333333333333 -1 0  -0.8666666666666667 -1 0  -0.8 -1 0  -0.7333333333333334 -1 0  -0.6666666666666667 -1 0  -0.6 -1 0  -0.5333333333333333 -1 0  -0.4666666666666667 -1 0  -0.4 -1 0  -0.3333333333333334 -1 0  -0.2666666666666667 -1 0  -0.2 -1 0  -0.1333333333333333 -1 0  -0.06666666666666665 -1 0  0 -1 0  0.06666666666666665 -1 0  0.1333333333333333 -1 0  0.2 -1 0  0.2666666666666666 -1 0  0.3333333333333333 -1 0  0.3999999999999999 -1 0  0.4666666666666666 -1 0  0.5333333333333334 -1 0  0.6000000000000001 -1 0  0.6666666666666667 -1 0  0.7333333333333334 -1 0  0.8 -1 0  0.8666666666666667 -1 0  0.9333333333333333 -1 0  1 -1 0  -1 -0.9333333333333333 0  -0.9333333333333333 -0.9333333333333333 0  -0.8666666666666667 -0.9333333333333333 0  -0.8 -0.9333333333333333 0  -0.7333333333333334 -0.9333333333333333 0  -0.6666666666666667 -0.9333333333333333 0  -0.6 -0.9333333333333333 0  -0.5333333333333333 -0.9333333333333333 0  -0.4666666666666667 -0.9333333333333333 0  -0.4 -0.9333333333333333 0  -0.3333333333333334 -0.9333333333333333 0  -0.2666666666666667 -0.9333333333333333 0  -0.2 -0.9333333333333333 0  -0.1333333333333333 -0.9333333333333333 0  -0.06666666666666665 -0.9333333333333333 0  0 -0.9333333333333333 0  0.06666666666666665 -0.9333333333333333 0  0.1333333333333333 -0.9333333333333333 0  0.2 -0.9333333333333333 0  0.2666666666666666 -0.9333333333333333 0  0.3333333333333333 -0.9333333333333333 0  0.3999999999999999 -0.9333333333333333 0  0.4666666666666666 -0.9333333333333333 0  0.5333333333333334 -0.9333333333333333 0  0.6000000000000001 -0.9333333333333333 0  0.6666666666666667 -0.9333333333333333 0  0.7333333333333334 -0.9333333333333333 0  0.8 -0.9333333333333333 0  0.8666666666666667 -0.9333333333333333 0  0.9333333333333333 -0.9333333333333333 0  1 -0.9333333333333333 0  -1 -0.8666666666666667 0  -0.9333333333333333 -0.8666666666666667 0  -0.8666666666666667 -0.8666666666666667 0  -0.8 -0.8666666666666667 0  -0.7333333333333334 -0.8666666666666667 0  -0.6666666666666667 -0.8666666666666667 0  -0.6 -0.8666666666666667 0  -0.5333333333333333 -0.8666666666666667 0  -0.4666666666666667 -0.8666666666666667 0  -0.4 -0.8666666666666667 0  -0.3333333333333334 -0.8666666666666667 0  -0.2666666666666667 -0.8666666666666667 0  -0.2 -0.8666666666666667 0  -0.1333333333333333 -0.8666666666666667 0  -0.06666666666666665 -0.8666666666666667 0  0 -0.8666666666666667 0  0.06666666666666665 -0.8666666666666667 0  0.1333333333333333 -0.8666666666666667 0  0.2 -0.8666666666666667 0  0.2666666666666666 -0.8666666666666667 0  0.3333333333333333 -0.8666666666666667 0  0.3999999999999999 -0.8666666666666667 0  0.4666666666666666 -0.8666666666666667 0  0.5333333333333334 -0.8666666666666667 0  0.6000000000000001 -0.8666666666666667 0  0.6666666666666667 -0.8666666666666667 0  0.7333333333333334 -0.8666666666666667 0  0.8 -0.8666666666666667 0  0.8666666666666667 -0.8666666666666667 0  0.9333333333333333 -0.8666666666666667 0  1 -0.8666666666666667 0  -1 -0.8 0  -0.9333333333333333 -0.8 0  -0.8666666666666667 -0.8 0  -0.8 -0.8 0  -0.7333333333333334 -0.8 0  -0.6666666666666667 -0.8 0  -0.6 -0.8 0  -0.5333333333333333 -0.8 0  -0.4666666666666667 -0.8 0  -0.4 -0.8 0  -0.3333333333333334 -0.8 0  -0.2666666666666667 -0.8 0  -0.2 -0.8 0  -0.1333333333333333 -0.8 0  -0.06666666666666665 -0.8 0  0 -0.8 0  0.06666666666666665 -0.8 0  0.1333333333333333 -0.8 0  0.2 -0.8 0  0.2666666666666666 -0.8 0  0.3333333333333333 -0.8 0  0.3999999999999999 -0.8 0  0.4666666666666666 -0.8 0  0.5333333333333334 -0.8 0  0.6000000000000001 -0.8 0  0.6666666666666667 -0.8 0  0.7333333333333334 -0.8 0  0.8 -0.8 0  0.8666666666666667 -0.8 0  0.9333333333333333 -0.8 0  1 -0.8 0  -1 -0.7333333333333334 0  -0.9333333333333333 -0.7333333333333334 0  -0.8666666666666667 -0.7333333333333334 0  -0.8 -0.7333333333333334 0  -0.7333333333333334 -0.7333333333333334 0  -0.6666666666666667 -0.7333333333333334 0  -0.6 -0.7333333333333334 0  -0.5333333333333333 -0.7333333333333334 0  -0.4666666666666667 -0.7333333333333334 0  -0.4 -0.7333333333333334 0  -0.3333333333333334 -0.7333333333333334 0  -0.2666666666666667 -0.7333333333333334 0  -0.2 -0.7333333333333334 0  -0.1333333333333333 -0.7333333333333334 0  -0.06666666666666665 -0.7333333333333334 0  0 -0.7333333333333334 0  0.06666666666666665 -0.7333333333333334 0  0.1333333333333333 -0.7333333333333334 0  0.2 -0.7333333333333334 0  0.2666666666666666 -0.7333333333333334 0  0.3333333333333333 -0.7333333333333334 0  0.3999999999999999 -0.7333333333333334 0  0.4666666666666666 -0.7333333333333334 0  0.5333333333333334 -0.7333333333333334 0  0.6000000000000001 -0.7333333333333334 0  0.6666666666666667 -0.7333333333333334 0  0.7333333333333334 -0.7333333333333334 0  0.8 -0.7333333333333334 0  0.8666666666666667 -0.7333333333333334 0  0.9333333333333333 -0.7333333333333334 0  1 -0.7333333333333334 0  -1 -0.6666666666666667 0  -0.9333333333333333 -0.6666666666666667 0  -0.8666666666666667 -0.6666666666666667 0  -0.8 -0.6666666666666667 0  -0.7333333333333334 -0.6666666666666667 0  -0.6666666666666667 -0.6666666666666667 0  -0.6 -0.6666666666666667 0  -0.5333333333333333 -0.6666666666666667 0  -0.4666666666666667 -0.6666666666666667 0  -0.4 -0.6666666666666667 0  -0.3333333333333334 -0.6666666666666667 0  -0.2666666666666667 -0.6666666666666667 0  -0.2 -0.6666666666666667 0  -0.1333333333333333 -0.6666666666666667 0  -0.06666666666666665 -0.6666666666666667 0  0 -0.6666666666666667 0  0.06666666666666665 -0.6666666666666667 0  0.1333333333333333 -0.6666666666666667 0  0.2 -0.6666666666666667 0  0.2666666666666666 -0.6666666666666667 0  0.3333333333333333 -0.6666666666666667 0  0.3999999999999999 -0.6666666666666667 0  0.4666666666666666 -0.6666666666666667 0  0.5333333333333334 -0.6666666666666667 0  0.6000000000000001 -0.6666666666666667 0  0.6666666666666667 -0.6666666666666667 0  0.7333333333333334 -0.6666666666666667 0  0.8 -0.6666666666666667 0  0.8666666666666667 -0.6666666666666667 0  0.9333333333333333 -0.6666666666666667 0  1 -0.6666666666666667 0  -1 -0.6 0  -0.9333333333333333 -0.6 0  -0.8666666666666667 -0.6 0  -0.8 -0.6 0  -0.7333333333333334 -0.6 0  -0.6666666666666667 -0.6 0  -0.6 -0.6 0  -0.5333333333333333 -0.6 0  -0.4666666666666667 -0.6 0  -0.4 -0.6 0  -0.3333333333333334 -0.6 0  -0.2666666666666667 -0.6 0  -0.2 -0.6 0  -0.1333333333333333 -0.6 0  -0.06666666666666665 -0.6 0  0 -0.6 0  0.06666666666666665 -0.6 0  0.1333333333333333 -0.6 0  0.2 -0.6 0  0.2666666666666666 -0.6 0  0.3333333333333333 -0.6 0  0.3999999999999999 -0.6 0  0.4666666666666666 -0.6 0  0.5333333333333334 -0.6 0  0.6000000000000001 -0.6 0  0.6666666666666667 -0.6 0  0.7333333333333334 -0.6 0  0.8 -0.6 0  0.8666666666666667 -0.6 0  0.9333333333333333 -0.6 0  1 -0.6 0  -1 -0.5333333333333333 0  -0.9333333333333333 -0.5333333333333333 0  -0.8666666666666667 -0.5333333333333333 0  -0.8 -0.5333333333333333 0  -0.7333333333333334 -0.5333333333333333 0  -0.6666666666666667 -0.5333333333333333 0  -0.6 -0.5333333333333333 0  -0.5333333333333333 -0.5333333333333333 0  -0.4666666666666667 -0.5333333333333333 0  -0.4 -0.5333333333333333 0  -0.3333333333333334 -0.5333333333333333 0  -0.2666666666666667 -0.5333333333333333 0  -0.2 -0.5333333333333333 0  -0.1333333333333333 -0.5333333333333333 0  -0.06666666666666665 -0.5333333333333333 0  0 -0.5333333333333333 0  0.06666666666666665 -0.5333333333333333 0  0.1333333333333333 -0.5333333333333333 0  0.2 -0.5333333333333333 0  0.2666666666666666 -0.5333333333333333 0  0.3333333333333333 -0.5333333333333333 0  0.3999999999999999 -0.5333333333333333 0  0.4666666666666666 -0.5333333333333333 0  0.5333333333333334 -0.5333333333333333 0  0.6000000000000001 -0.5333333333333333 0  0.6666666666666667 -0.5333333333333333 0  0.7333333333333334 -0.5333333333333333 0  0.8 -0.5333333333333333 0  0.8666666666666667 -0.5333333333333333 0  0.9333333333333333 -0.5333333333333333 0  1 -0.5333333333333333 0  -1 -0.4666666666666667 0  -0.9333333333333333 -0.4666666666666667 0  -0.8666666666666667 -0.4666666666666667 0  -0.8 -0.4666666666666667 0  -0.7333333333333334 -0.4666666666666667 0  -0.6666666666666667 -0.4666666666666667 0  -0.6 -0.4666666666666667 0  -0.5333333333333333 -0.4666666666666667 0  -0.4666666666666667 -0.4666666666666667 0  -0.4 -0.4666666666666667 0  -0.3333333333333334 -0.4666666666666667 0  -0.2666666666666667 -0.4666666666666667 0  -0.2 -0.4666666666666667 0  -0.1333333333333333 -0.4666666666666667 0  -0.06666666666666665 -0.4666666666666667 0  0 -0.4666666666666667 0  0.06666666666666665 -0.4666666666666667 0  0.1333333333333333 -0.4666666666666667 0  0.2 -0.4666666666666667 0  0.2666666666666666 -0.4666666666666667 0  0.3333333333333333 -0.4666666666666667 0  0.3999999999999999 -0.4666666666666667 0  0.4666666666666666 -0.4666666666666667 0  0.5333333333333334 -0.4666666666666667 0  0.6000000000000001 -0.4666666666666667 0  0.6666666666666667 -0.4666666666666667 0  0.7333333333333334 -0.4666666666666667 0  0.8 -0.4666666666666667 0  0.8666666666666667 -0.4666666666666667 0  0.9333333333333333 -0.4666666666666667 0  1 -0.4666666666666667 0  -1 -0.4 0  -0.9333333333333333 -0.4 0  -0.8666666666666667 -0.4 0  -0.8 -0.4 0  -0.7333333333333334 -0.4 0  -0.6666666666666667 -0.4 0  -0.6 -0.4 0  -0.5333333333333333 -0.4 0  -0.4666666666666667 -0.4 0  -0.4 -0.4 0  -0.3333333333333334 -0.4 0  -0.2666666666666667 -0.4 0  -0.2 -0.4 0  -0.1333333333333333 -0.4 0  -0.06666666666666665 -0.4 0  0 -0.4 0  0.06666666666666665 -0.4 0  0.1333333333333333 -0.4 0  0.2 -0.4 0  0.2666666666666666 -0.4 0  0.3333333333333333 -0.4 0  0.3999999999999999 -0.4 0  0.4666666666666666 -0.4 0  0.5333333333333334 -0.4 0  0.6000000000000001 -0.4 0  0.6666666666666667 -0.4 0  0.7333333333333334 -0.4 0 
[...]
<PointData  Scalars="f_24"> 
<DataArray  type="Float64"  Name="f_24"  format="ascii">0.0000000000000000e+00  0.0000000000000000e+00  0.0000000000000000e+00  0.0000000000000000e+00  0.0000000000000000e+00  0.0000000000000000e+00  0.0000000000000000e+00  0.0000000000000000e+00  0.0000000000000000e+00  0.0000000000000000e+00  0.0000000000000000e+00  0.0000000000000000e+00  0.0000000000000000e+00  0.0000000000000000e+00  0.0000000000000000e+00  0.0000000000000000e+00  0.0000000000000000e+00  0.0000000000000000e+00  0.0000000000000000e+00  0.0000000000000000e+00  0.0000000000000000e+00  0.0000000000000000e+00  0.0000000000000000e+00  0.0000000000000000e+00  0.0000000000000000e+00  -1.6356176015506759e-07  0.0000000000000000e+00  -2.9369954728633799e-07  0.0000000000000000e+00  0.0000000000000000e+00  1.2649133594059769e+01  0.0000000000000000e+00  1.1540201641384177e+07  1.2602438229543285e+07  1.8339805727671202e+07  1.3203291106906064e+07  1.8089185245976988e+07  1.0309966492969830e+07  1.7195674388849616e+07  7.3015904061662564e+06  1.6075567130389575e+07  5.2086051249110568e+06  1.5675316682660546e+07  3.1188692501720074e+06  1.6329844486023616e+07  1.5573864444661778e+06  1.7074051235592570e+07  1.0127885476857933e+06  1.8153937393252421e+07  9.6067103732867807e+05  1.9901621367512114e+07  1.6482416019035799e+06  2.3153973937477089e+07  1.0017831284578111e+06  3.3939090830328278e+07  -5.5051989203679720e+06  5.9278686763699427e+07  -1.7907324405443024e+07  9.8282068780784652e+07  -1.1002762177623669e+07  2.1381607773603326e+08  1.1045051675975539e+01  0.0000000000000000e+00  1.2602438209558476e+07  1.3845562551897611e+07  5.5496447431866303e+06  2.4493481708750757e+06  -3.7848497137871264e+06  -3.4808275233800840e+06  -8.2341102725590169e+06  -6.6174686948181568e+06  -9.1175363789938129e+06  -7.6867629086577259e+06  -9.9934334416055921e+06  -7.3219616852269378e+06  -1.0342819146531146e+07  -7.8297924172574645e+06  -9.7776157336858492e+06  -8.5758140069422089e+06  -9.9028098538230117e+06  -8.9427541819500886e+06  -1.0067207740603156e+07  -9.6553250006340239e+06  -1.1518609636514487e+07  -7.1651686370203570e+06  -1.9857645367891811e+07  -1.1660604173812035e+06  -3.2334006822682813e+07  2.9964125611138116e+06  -2.7953655404362839e+07  -1.7234702666212473e+07  -1.1002770139950946e+07  9.5985998253557270e+00  -2.8338633559196397e-09  1.8339805719062682e+07  5.5496447466779035e+06  1.9795569071378263e+06  -4.4730074554896774e+06  1.3173298682459886e+06  -4.5908441281221304e+06  3.8096893533144845e+06  -2.1163463022766421e+06  6.7212408855140442e+06  -2.1259865739210616e+06  9.8645099492851235e+06  -2.4338159275945215e+06  1.1030699919501321e+07  -2.1519101535322750e+06  1.2090836992557723e+07  -3.2505354453145601e+06  1.3926786622141331e+07  -4.3435995950454222e+06  1.4432636062779017e+07  -5.3697323277526805e+06  1.7458138608143516e+07  -1.1021064558997611e+07  2.9112677959882513e+07  -1.8338933560714334e+07  4.4997727453427255e+07  -2.9584968306061335e+07  5.3840932975038730e+07  -2.7953654856743816e+07  9.8282070327500567e+07  8.2990961081715273e+00  0.0000000000000000e+00  1.3203291044888472e+07  2.4493481901747799e+06  -4.4730074612937802e+06  5.4873024403574783e+05  -4.5048678723298497e+06  4.3482231400490098e+05  -3.3142908322462058e+06  -1.4936423860332076e+05  -5.3292449552350184e+06  -8.2319946954143612e+04  -6.2964902128078407e+06  -1.7051385244039907e+06  -5.9415466999564180e+06  -2.5477432252713297e+06  -6.7703468157188054e+06  -2.2998985047574039e+06  -6.8585457594711604e+06  -3.6701185131288338e+06  -5.3121653995409533e+06  -3.7969785102758380e+06  -9.0081825931638181e+06  3.0685839796353917e+05  -2.0954503263534129e+07  3.2557213295154208e+06  -3.0096153686334051e+07  1.1788110218165850e+07  -2.9584976682972681e+07  2.9964182148019187e+06  -1.7907331071572106e+07  7.1362351521963676e+00  2.9774723603091954e-09  1.8089185228381462e+07  -3.7848496770836799e+06  1.3173298746362128e+06  -4.5048678759785835e+06  1.2930955359909437e+06  -2.9355013018023730e+06  3.0315917008837913e+06  -4.3266117763726953e+06  5.9421750831233412e+06  -3.9491161662110100e+06  6.7916662910427162e+06  -3.1691114149805875e+06  8.6285319246047717e+06  -4.3657743622172819e+06  1.0938236848022195e+07  -5.1199461565561434e+06  1.1205354456105078e+07  -4.7769666957898410e+06  1.1686365990552364e+07  -8.1035105785105629e+06  1.9307429222573951e+07  -1.3763551296572981e+07  3.1614878883043390e+07  -1.9975133257955205e+07  3.6929500634049870e+07  -3.0096163805632047e+07  4.4997736985225558e+07  -3.2334007854296282e+07  5.9278686235194877e+07  6.1000837162711088e+00  0.0000000000000000e+00  1.0309966402784109e+07  -3.4808274684368572e+06  -4.5908441796242408e+06  4.3482232544644864e+05  -2.9355013065172518e+06  2.4028018834918044e+06  -4.4714175672078300e+06  3.4645334121229234e+06  -4.2470341071394412e+06  1.8131850178591211e+06  -4.3224976448450675e+06  1.7389142039798936e+06  -5.8043904335699147e+06  1.6626708845546043e+06  -5.8589483122079195e+06  1.8118444161378831e+05  -4.5255550513600549e+06  -1.0426451848356121e+06  -4.9423192859164430e+06  1.1809220599303411e+06  -1.1792385105345467e+07  2.4298320198818920e+06  -1.7904993726803839e+07  5.8658387824074905e+06  -1.9975157502881393e+07  3.2557400635968805e+06  -1.8338940695794046e+07  -1.1660612261931661e+06  -5.5052011891098535e+06  5.1810851201268822e+00  1.2476425418171884e-09  1.7195674379428998e+07  -8.2341102183063328e+06  3.8096893481729422e+06  -3.3142908116175979e+06  3.0315917053803848e+06  -4.4714175722606657e+06  4.1018433551865011e+06  -3.9822381482780040e+06  4.0203851150177293e+06  -4.0748381006042813e+06  6.4039808091492550e+06  -5.1553922867866242e+06  7.8610369002992343e+06  -4.9653878432413656e+06  8.5117912086982243e+06  -5.0316716220840281e+06  9.1645931770580113e+06  -5.9412401695944835e+06  1.1859113515932966e+07  -9.4697489930970874e+06  1.9897276045174811e+07  -1.2357091636757741e+07  2.4309436135987818e+07  -1.7905035842267286e+07  3.1614913594852813e+07  -2.0954510252067450e+07  2.9112671780107640e+07  -1.9857638678585973e+07  3.3939089752317742e+07  4.3700570297472581e+00  0.0000000000000000e+00  7.3015902869367097e+06  -6.6174686172016244e+06  -2.1163463870162331e+06  -1.4936420801807026e+05  -4.3266118226983026e+06  3.4645334318635608e+06  -3.9822381565933242e+06  3.4376009478589143e+06  -4.2351032189535405e+06  4.6270137053773878e+06  -5.2822261268374482e+06  3.5944010756222187e+06  -5.0077698376986524e+06  2.9022578217517277e+06  -5.5334334452954419e+06  2.4574704577907054e+06  -4.7629969420639537e+06  1.5160283394243396e+06  -6.2062489743560180e+06  2.7177419053410669e+06  -1.1237662321281344e+07  3.7214062435913859e+06  -1.2357170128905255e+07  2.4298951329914522e+06  -1.3763565250119461e+07  3.0684354136288160e+05  -1.1021053235182878e+07  -7.1651699097589022e+06  1.0017785250230057e+06  3.6581919002593413e+00  1.6219686789068836e-08  1.6075567131032906e+07  -9.1175362997717485e+06  6.7212408676759563e+06  -5.3292449258010406e+06  5.9421751037504384e+06  -4.2470341031232793e+06  4.0203851213285131e+06  -4.2351032233707858e+06  5.2443715992428660e+06  -5.1911569033143325e+06  5.0600971646623379e+06  -4.7968483747866778e+06  6.8037279152825000e+06  -6.0465675263233026e+06  8.1106779480885752e+06  -5.5272775672889464e+06  7.2396068010309143e+06  -5.6064714159867149e+06  1.1351482586893326e+07  -8.7297794405335952e+06  1.6263685856768740e+07  -1.1237796502019528e+07  1.9897386254377354e+07  -1.1792404459679067e+07  1.9307396972901911e+07  -9.0081540744094141e+06  1.7458133870794155e+07  -1.1518614212187339e+07  2.3153976954501748e+07  3.0370570009262723e+00  0.0000000000000000e+00  5.2086049819440385e+06  -7.6867628154802974e+06  -2.1259867119860137e+06  -8.2319868841409436e+04  -3.9491162576530795e+06  1.8131850480047041e+06  -4.0748381418272736e+06  4.6270137288705772e+06  -5.1911569172327816e+06  4.4052282239000062e+06  -4.7211127989051891e+06  5.5644604976555109e+06  -6.4386372975513581e+06  4.8237610249821283e+06  -5.1559498004687009e+06  2.3940541526173158e+06  -3.5885521415320751e+06  2.8905646989181843e+06  -8.2357095873624254e+06  4.5999568470644318e+06  -8.7300025800021775e+06  2.7179265888247904e+06  -9.4697797541286871e+06  1.1808596738072105e+06  -8.1034576364089036e+06  -3.7969873280012659e+06  -5.3697468153893864e+06  -9.6553150730448607e+06  1.6482385736391200e+06  2.4985942901846472e+00  0.0000000000000000e+00  1.5675316697264168e+07  -9.9934333562111966e+06  9.8645099504935462e+06  -6.2964901744485963e+06  6.7916663007204235e+06  -4.3224976221919227e+06  6.4039808392362595e+06  -5.2822261403379673e+06  5.0600971803633850e+06  -4.7211128043423835e+06  6.2503982081543030e+06  -6.7672678129443759e+06  6.0107051773882909e+06  -4.8072615922452295e+06  5.6847948677507117e+06  -4.4727282182481093e+06  6.5971810199712524e+06  -7.1179296383562926e+06  1.1871814725822199e+07  -8.2360561987998951e+06  1.1351775891285125e+07  -6.2062913182205716e+06  1.1859000145660028e+07  -4.9422209831878794e+06  1.1686349688739562e+07  -5.3121917392215747e+06  1.4432656184252014e+07  -1.0067208867465764e+07  1.9901617965511296e+07  2.0351206655697074e+00  0.0000000000000000e+00  3.1188690647462113e+06  -7.3219615549428863e+06  -2.4338161260431306e+06  -1.7051384239703491e+06  -3.1691115427316655e+06  1.7389142760885335e+06  -5.1553923944692770e+06  3.5944011237018267e+06  -4.7968484217711305e+06  5.5644605278670527e+06  -6.7672678379503209e+06  5.3372884749465473e+06  -4.2024577514726715e+06  4.7187967664688267e+06  -5.6259630082351910e+06  4.0357793488712749e+06  -5.2708131510619782e+06  4.8896534032165203e+06  -7.1184342182704266e+06  2.8910020166311092e+06  -5.6065286694422653e+06  1.5158367253528517e+06  -5.9410748115657447e+06  -1.0426710703464036e+06  -4.7770189802105743e+06  -3.6700786454433310e+06  -4.3436041019940907e+06  -8.9427634854025487e+06  9.6067380845002597e+05  1.6393277137901461e+00  3.2830716636508578e-06  1.6329844532439260e+07  -1.0342819057959439e+07  1.1030699924264399e+07  -5.9415466322971275e+06  8.6285319465750903e+06  -5.8043904275865853e+06  7.8610369526066687e+06  -5.0077698394492297e+06  6.8037279626175594e+06  -6.4386373389906120e+06  6.0107052174650254e+06  -4.2024577605067967e+06  5.3793314725605110e+06  -7.0610488568226369e+06  6.0902772791356798e+06  -3.6569693442975120e+06  5.1859414710931247e+06  -5.2714887958980137e+06  6.5977861441458426e+06  -3.5886217727114987e+06  7.2393060986816054e+06  -4.7627343039387213e+06  9.1645554664510135e+06  -4.5256467831575610e+06  1.1205426016434293e+07  -6.8585507836017124e+06  1.3926764794654006e+07  -9.9027974340018388e+06  1.8153937742296632e+07  1.3042818356906987e+00  0.0000000000000000e+00  1.5573861966180124e+06  -7.8297922590672504e+06  -2.1519104009913406e+06  -2.5477430888498859e+06  -4.3657745762713095e+06  1.6626710190519122e+06  -4.9653880078349393e+06  2.9022579138194933e+06  -6.0465676669578124e+06  4.8237611143807005e+06  -4.8072616603741581e+06  4.7187968019663543e+06  -7.0610489025035957e+06  6.0653998506561285e+06  -2.2178847056372310e+06  6.8240688102991972e+05  -3.6577963691643765e+06  4.0365489621954481e+06  -4.4728080737099610e+06  2.3936211274321335e+06  -5.5268946339809075e+06  2.4574218343134988e+06  -5.0318258348856736e+06  1.8130493678008058e+05  -5.1199547435744489e+06  -2.2999400984221217e+06  -3.2505120447712941e+06  -8.5758117386210170e+06  1.0127811889049049e+06  1.0234242212596310e+00  -7.4976577064942699e-09  1.7074051313759357e+07  -9.7776156173718069e+06  1.2090837010481920e+07  -6.7703467585830735e+06  1.0938236922185432e+07  -5.8589483150199298e+06  8.5117912861751318e+06  -5.5334334826201042e+06  8.1106780657940824e+06  -5.1559498595631095e+06  5.6847949549113801e+06  -5.6259631083511850e+06  6.0902774104819372e+06  -2.2178847610296444e+06  -2.2678095430029303e+05  -2.2188012169549693e+06  6.0911694855043078e+06  -5.6260479248268101e+06  5.6842277943575354e+06  -5.1554359671081202e+06  8.1106216088410458e+06  -5.5336694382381570e+06  8.5119775298494566e+06  -5.8589571127738226e+06  1.0938162982772416e+07  -6.7703021144768903e+06  1.2090841292662578e+07  -9.7776316788857244e+06  1.7074056697267599e+07  7.9057084962873558e-01  0.0000000000000000e+00  1.0127882199464110e+06  -8.5758138065471537e+06  -3.2505358001774508e+06  -2.2998982782785520e+06  -5.1199464809612865e+06  1.8118463721759230e+05  -5.0316718921870263e+06  2.4574706616365439e+06  -5.5272778315454265e+06  2.3940543266990907e+06  -4.4727284441257417e+06  4.0357795523204044e+06  -3.6569695044870479e+06  6.8240688100088784e+05  -2.2188011615619357e+06  6.0663376157724233e+06  -7.0611358558063544e+06  4.7181274856262486e+06  -4.8066347106189560e+06  4.8237020014404859e+06  -6.0468980868305517e+06  2.9025219585747160e+06  -4.9653954481343534e+06  1.6625514809867637e+06  -4.3657018004552303e+06  -2.5477340172702479e+06  -2.1519436114073396e+06  -7.8297789086668277e+06  1.5573880268424065e+06  5.9991248907333350e-01  -7.7033590955826834e-09  1.8153937516207919e+07  -9.9028097274217792e+06  1.3926786708545839e+07  -6.8585457331499159e+06  1.1205354584179454e+07  -4.5255550815353366e+06  9.1645933519875128e+06  -4.7629970601394717e+06  7.2396069976269612e+06  -3.5885522502629841e+06  6.5971812021423765e+06  -5.2708132446236592e+06  5.1859414709964851e+06  -3.6577962088622786e+06  6.0911693541744519e+06  -7.0611358101146286e+06  5.3786236639721328e+06  -4.2017640645459918e+06  6.0106468220155900e+06  -6.4390529233185295e+06  6.8040680449379710e+06  -5.0077708764793538e+06  7.8608602161425194e+06  -5.8042804378705667e+06  8.6285483824392315e+06  -5.9416027902262770e+06  1.1030723602326689e+07  -1.0342811109424267e+07  1.6329835713045469e+07  4.4601468462342586e-01  0.0000000000000000e+00  9.6067056281939312e+05  -8.9427538725967295e+06  -4.3436001254813354e+06  -3.6701181871178970e+06  -4.7769671492000325e+06  -1.0426448846814112e+06  -5.9412405909925234e+06  1.5160286149048116e+06  -5.6064717195651503e+06  2.8905648515236680e+06  -7.1179298203384122e+06  4.8896534031631527e+06  -5.2714887021762021e+06  4.0365487586205909e+06  -5.6260478247889206e+06  4.7181274501096532e+06  -4.2017640555255124e+06  5.3372309095728295e+06  -6.7677351765381563e+06  5.5648570154295675e+06  -4.7968414408557778e+06  3.5941655248176400e+06  -5.1552434613093575e+06  1.7389420007167619e+06  -3.1691997260147613e+06  -1.7051004512327784e+06  -2.4338011293191263e+06  -7.3219825463096071e+06  3.1188732900277381e+06  3.2381782000793013e-01  -4.1149278689273980e-09  1.9901621576826759e+07  -1.0067207601764496e+07  1.4432636208555957e+07  -5.3121653545944495e+06  1.1686366160788104e+07  -4.9423193205816681e+06  1.1859113704969171e+07  -6.2062489881016891e+06  1.1351482664386006e+07  -8.2357095253186692e+06  1.1871814725698007e+07  -7.1184340362421880e+06  6.5977859619041085e+06  -4.4728078476684941e+06  5.6842277073291261e+06  -4.8066346424217382e+06  6.0106467819684213e+06  -6.7677351515223682e+06  6.2508155869551916e+06  -4.7210995562963188e+06  5.0598161172272032e+06  -5.2820430668999040e+06  6.4040217196260253e+06  -4.3226208099749358e+06  6.7917201317098262e+06  -6.2964634510297328e+06  9.8644720237587094e+06  -9.9934232113557290e+06  1.5675322451127492e+07  2.2863699376620886e-01  0.0000000000000000e+00  1.6482408953447831e+06  -9.6553245767392069e+06  -5.3697330170910135e+06  -3.7969781473918837e+06  -8.1035111139622983e+06  1.1809223397803905e+06  -9.4697493621177152e+06  2.7177420071548326e+06  -8.7297796111891773e+06  4.5999568465844113e+06  -8.2360562602947233e+06  2.8910018640034283e+06  -3.5886216640607272e+06  2.3936209531032951e+06  -5.1554359082456101e+06  4.8237019118947284e+06  -6.4390528819572274e+06  5.5648569851845577e+06  -4.7210995508668711e+06  4.4049299625111083e+06  -5.1909543212624192e+06  4.6270658885244057e+06  -4.0749936225674371e+06  1.8132541832936446e+06  -3.9490769420843176e+06  -8.2377151137554771e+04  -2.1259722319977214e+06  -7.6867481240897197e+06  5.2085941728195436e+06  1.5616214313654042e-01  0.0000000000000000e+00  2.3153974198376689e+07  -1.1518609343950775e+07  1.7458138724694729e+07  -9.0081824393644445e+06  1.9307429376092274e+07  -1.1792385017346360e+07  1.9897276125467081e+07  -1.1237662161505617e+07  1.6263685856522011e+07  -8.7300024084604289e+06  1.1351775813004283e+07  -5.6065283658082839e+06  7.2393059023860050e+06  -5.5268943692824179e+06  8.1106214915319541e+06  -6.0468979458963834e+06  6.8040679977780357e+06  -4.7968413937776843e+06  5.0598161015639221e+06  -5.1909543073393125e+06  5.2444282289084364e+06  -4.2352777673241263e+06  4.0204651132840863e+06  -4.2469819914837293e+06  5.9420980932436297e+06  -5.3292249519793084e+06  6.7212656963330107e+06  -9.1175576629121434e+06  1.6075569648900842e+07  1.0245809838799581e-01  0.0000000000000000e+00  1.0017821486203609e+06  -7.1651681380761005e+06  -1.1021065413022920e+07  3.0685875084285601e+05  -1.3763551875400769e+07  2.4298321915225210e+06  -1.2357091949501462e+07  3.7214062426968454e+06  -1.1237796661434142e+07  2.7179264866408249e+06  -6.2062913035873305e+06  1.5158364496357692e+06  -4.7627341864977162e+06  2.4574216296762340e+06  -5.5336694016163619e+06  2.9025218659553472e+06  -5.0077708751002206e+06  3.5941654765258664e+06  -5.2820430535084438e+06  4.6270658649927666e+06  -4.2352777629113793e+06  3.4376848962946418e+06  -3.9821784562518685e+06  3.4644417091805255e+06  -4.3265885120935449e+06  -1.4932834133310310e+05  -2.1163802059457251e+06  -6.6174645527887791e+06  7.3015978400949221e+06  6.3964013828726976e-02  0.0000000000000000e+00  3.3939091019286819e+07  -1.9857644804477070e+07  2.9112678115071125e+07  -2.0954503030484837e+07  3.1614879054079004e+07  -1.7904993479163408e+07  2.4309436134016458e+07  -1.2357169812421404e+07  1.9897386173130386e+07  -9.4697793854912464e+06  1.1858999955843983e+07  -5.9410743895041822e+06  9.1645552927605063e+06  -5.0318255633643446e+06  8.5119774536591880e+06  -4.9653952825120278e+06  7.8608601645751866e+06  -5.1552433531583017e+06  6.4040216897999346e+06  -4.0749935812177286e+06  4.0204651070137080e+06  -3.9821784479325782e+06  4.1017461025744705e+06  -4.4713920991822006e+06  3.0316358549628761e+06  -3.3143340372232241e+06  3.8096931922662333e+06  -8.2340928055534447e+06  1.7195665185585845e+07  3.7494530567083309e-02  0.0000000000000000e+00  -5.5052003734889003e+06  -1.1660596829434051e+06  -1.8338934706230175e+07  3.2557216323702377e+06  -1.9975133873154689e+07  5.8658387834689170e+06  -1.7905036090498693e+07  2.4298949568775836e+06  -1.1792404545169918e+07  1.1808593952041494e+06  -4.9422209481652072e+06  -1.0426713720810601e+06  -4.5256467554010926e+06  1.8130473854644567e+05  -5.8589571123583363e+06  1.6625513445311736e+06  -5.8042804453092199e+06  1.7389419276181322e+06  -4.3226208332304871e+06  1.8132541528249343e+06  -4.2469819956475962e+06  3.4644416893959255e+06  -4.4713920941336583e+06  2.4028492135777543e+06  -2.9355504808279853e+06  4.3482605782024359e+05  -4.5908196943401759e+06  -3.4808434276534347e+06  1.0309965438567447e+07  2.0238613750495613e-02  0.0000000000000000e+00  5.9278686769763447e+07  -3.2334005942101825e+07  4.4997727730675370e+07  -3.0096153179026645e+07  3.6929500622995429e+07  -1.9975156871091023e+07  3.1614913429651733e+07  -1.3763564670312542e+07  1.9307396813625779e+07  -8.1034571031293152e+06  1.1686349519370196e+07  -4.7770185230570622e+06  1.1205425893351067e+07  -5.1199544139842018e+06  1.0938162913301298e+07  -4.3657015825359346e+06  8.6285483634107728e+06  -3.1691995961905899e+06  6.7917201233786829e+06  -3.9490768498523762e+06  5.9420980730245793e+06  -4.3265884655921441e+06  3.0316358505156445e+06  -2.9355504761082036e+06  1.2930991134269715e+06  -4.5048385948086111e+06  1.3173087298581759e+06  -3.7848510004127258e+06  1.8089192965046745e+07  9.7601339460337642e-03  0.0000000000000000e+00  -1.7907326900264069e+07  2.9964135606124769e+06  -2.9584969542292375e+07  1.1788110202800635e+07  -3.0096164369586915e+07  3.2557397274475428e+06  -2.09545