<?xml version="1.0"?>
<VTKFile type="UnstructuredGrid"  version="0.1"  >
<UnstructuredGrid>
<Piece  NumberOfPoints="961" NumberOfCells="1800">
<Points>
<DataArray  type="Float64"  NumberOfComponents="3"  format="ascii">-1 -1 0  -0.9333333333333333 -1 0  -0.8666666666666667 -1 0  -0.8 -1 0  -0.7333333333333334 -1 0  -0.6666666666666667 -1 0  -0.6 -1 0  -0.5333333333333333 -1 0  -0.4666666666666667 -1 0  -0.4 -1 0  -0.3333333333333334 -1 0  -0.2666666666666667 -1 0  -0.2 -1 0  -0.1333333333333333 -1 0  -0.06666666666666665 -1 0  0 -1 0  0.06666666666666665 -1 0  0.1333333333333333 -1 0  0.2 -1 0  0.2666666666666666 -1 0  0.3333333333333333 -1 0  0.3999999999999999 -1 0  0.4666666666666666 -1 0  0.5333333333333334 -1 0  0.6000000000000001 -1 0  0.6666666666666667 -1 0  0.7333333333333334 -1 0  0.8 -1 0  0.8666666666666667 -1 0  0.9333333333333333 -1 0  1 -1 0  -1 -0.9333333333333333 0  -0.9333333333333333 -0.9333333333333333 0  -0.8666666666666667 -0.9333333333333333 0  -0.8 -0.9333333333333333 0  -0.7333333333333334 -0.9333333333333333 0  -0.6666666666666667 -0.9333333333333333 0  -0.6 -0.9333333333333333 0  -0.5333333333333333 -0.9333333333333333 0  -0.4666666666666667 -0.9333333333333333 0  -0.4 -0.9333333333333333 0  -0.3333333333333334 -0.9333333333333333 0  -0.2666666666666667 -0.9333333333333333 0  -0.2 -0.9333333333333333 0  -0.1333333333333333 -0.9333333333333333 0  -0.06666666666666665 -0.9333333333333333 0  0 -0.9333333333333333 0  0.06666666666666665 -0.9333333333333333 0  0.1333333333333333 -0.9333333333333333 0  0.2 -0.9333333333333333 0  0.2666666666666666 -0.9333333333333333 0  0.3333333333333333 -0.9333333333333333 0  0.3999999999999999 -0.9333333333333333 0  0.4666666666666666 -0.9333333333333333 0  0.5333333333333334 -0.9333333333333333 0  0.6000000000000001 -0.9333333333333333 0  0.6666666666666667 -0.9333333333333333 0  0.7333333333333334 -0.9333333333333333 0  0.8 -0.9333333333333333 0  0.8666666666666667 -0.9333333333333333 0  0.9333333333333333 -0.9333333333333333 0  1 -0.9333333333333333 0  -1 -0.8666666666666667 0  -0.9333333333333333 -0.8666666666666667 0  -0.8666666666666667 -0.8666666666666667 0  -0.8 -0.8666666666666667 0  -0.7333333333333334 -0.8666666666666667 0  -0.6666666666666667 -0.8666666666666667 0  -0.6 -0.8666666666666667 0  -0.5333333333333333 -0.8666666666666667 0  -0.4666666666666667 -0.8666666666666667 0  -0.4 -0.8666666666666667 0  -0.3333333333333334 -0.8666666666666667 0  -0.2666666666666667 -0.8666666666666667 0  -0.2 -0.8666666666666667 0  -0.1333333333333333 -0.8666666666666667 0  -0.06666666666666665 -0.8666666666666667 0  0 -0.8666666666666667 0  0.06666666666666665 -0.8666666666666667 0  0.1333333333333333 -0.8666666666666667 0  0.2 -0.8666666666666667 0  0.2666666666666666 -0.8666666666666667 0  0.3333333333333333 -0.8666666666666667 0  0.3999999999999999 -0.8666666666666667 0  0.4666666666666666 -0.8666666666666667 0  0.5333333333333334 -0.8666666666666667 0  0.6000000000000001 -0.8666666666666667 0  0.6666666666666667 -0.8666666666666667 0  0.7333333333333334 -0.8666666666666667 0  0.8 -0.8666666666666667 0  0.8666666666666667 -0.8666666666666667 0  0.9333333333333333 -0.8666666666666667 0  1 -0.8666666666666667 0  -1 -0.8 0  -0.9333333333333333 -0.8 0  -0.8666666666666667 -0.8 0  -0.8 -0.8 0  -0.7333333333333334 -0.8 0  -0.6666666666666667 -0.8 0  -0.6 -0.8 0  -0.5333333333333333 -0.8 0  -0.4666666666666667 -0.8 0  -0.4 -0.8 0  -0.3333333333333334 -0.8 0  -0.2666666666666667 -0.8 0  -0.2 -0.8 0  -0.1333333333333333 -0.8 0  -0.06666666666666665 -0.8 0  0 -0.8 0  0.06666666666666665 -0.8 0  0.1333333333333333 -0.8 0  0.2 -0.8 0  0.2666666666666666 -0.8 0  0.3333333333333333 -0.8 0  0.3999999999999999 -0.8 0  0.4666666666666666 -0.8 0  0.5333333333333334 -0.8 0  0.6000000000000001 -0.8 0  0.6666666666666667 -0.8 0  0.7333333333333334 -0.8 0  0.8 -0.8 0  0.8666666666666667 -0.8 0  0.9333333333333333 -0.8 0  1 -0.8 0  -1 -0.7333333333333334 0  -0.9333333333333333 -0.7333333333333334 0  -0.8666666666666667 -0.7333333333333334 0  -0.8 -0.7333333333333334 0  -0.7333333333333334 -0.7333333333333334 0  -0.6666666666666667 -0.7333333333333334 0  -0.6 -0.7333333333333334 0  -0.5333333333333333 -0.7333333333333334 0  -0.4666666666666667 -0.7333333333333334 0  -0.4 -0.7333333333333334 0  -0.3333333333333334 -0.7333333333333334 0  -0.2666666666666667 -0.7333333333333334 0  -0.2 -0.7333333333333334 0  -0.1333333333333333 -0.7333333333333334 0  -0.06666666666666665 -0.7333333333333334 0  0 -0.7333333333333334 0  0.06666666666666665 -0.7333333333333334 0  0.1333333333333333 -0.7333333333333334 0  0.2 -0.7333333333333334 0  0.2666666666666666 -0.7333333333333334 0  0.3333333333333333 -0.7333333333333334 0  0.3999999999999999 -0.7333333333333334 0  0.4666666666666666 -0.7333333333333334 0  0.5333333333333334 -0.7333333333333334 0  0.6000000000000001 -0.7333333333333334 0  0.6666666666666667 -0.7333333333333334 0  0.7333333333333334 -0.7333333333333334 0  0.8 -0.7333333333333334 0  0.8666666666666667 -0.7333333333333334 0  0.9333333333333333 -0.7333333333333334 0  1 -0.7333333333333334 0  -1 -0.6666666666666667 0  -0.9333333333333333 -0.6666666666666667 0  -0.8666666666666667 -0.6666666666666667 0  -0.8 -0.6666666666666667 0  -0.7333333333333334 -0.6666666666666667 0  -0.6666666666666667 -0.6666666666666667 0  -0.6 -0.6666666666666667 0  -0.5333333333333333 -0.6666666666666667 0  -0.4666666666666667 -0.6666666666666667 0  -0.4 -0.6666666666666667 0  -0.3333333333333334 -0.6666666666666667 0  -0.2666666666666667 -0.6666666666666667 0  -0.2 -0.6666666666666667 0  -0.1333333333333333 -0.6666666666666667 0  -0.06666666666666665 -0.6666666666666667 0  0 -0.6666666666666667 0  0.06666666666666665 -0.6666666666666667 0  0.1333333333333333 -0.6666666666666667 0  0.2 -0.6666666666666667 0  0.2666666666666666 -0.6666666666666667 0  0.3333333333333333 -0.6666666666666667 0  0.3999999999999999 -0.6666666666666667 0  0.4666666666666666 -0.6666666666666667 0  0.5333333333333334 -0.6666666666666667 0  0.6000000000000001 -0.6666666666666667 0  0.6666666666666667 -0.6666666666666667 0  0.7333333333333334 -0.6666666666666667 0  0.8 -0.6666666666666667 0  0.8666666666666667 -0.6666666666666667 0  0.9333333333333333 -0.6666666666666667 0  1 -0.6666666666666667 0  -1 -0.6 0  -0.9333333333333333 -0.6 0  -0.8666666666666667 -0.6 0  -0.8 -0.6 0  -0.7333333333333334 -0.6 0  -0.6666666666666667 -0.6 0  -0.6 -0.6 0  -0.5333333333333333 -0.6 0  -0.4666666666666667 -0.6 0  -0.4 -0.6 0  -0.3333333333333334 -0.6 0  -0.2666666666666667 -0.6 0  -0.2 -0.6 0  -0.1333333333333333 -0.6 0  -0.06666666666666665 -0.6 0  0 -0.6 0  0.06666666666666665 -0.6 0  0.1333333333333333 -0.6 0  0.2 -0.6 0  0.2666666666666666 -0.6 0  0.3333333333333333 -0.6 0  0.3999999999999999 -0.6 0  0.4666666666666666 -0.6 0  0.5333333333333334 -0.6 0  0.6000000000000001 -0.6 0  0.6666666666666667 -0.6 0  0.7333333333333334 -0.6 0  0.8 -0.6 0  0.8666666666666667 -0.6 0  0.9333333333333333 -0.6 0  1 -0.6 0  -1 -0.5333333333333333 0  -0.9333333333333333 -0.5333333333333333 0  -0.8666666666666667 -0.5333333333333333 0  -0.8 -0.5333333333333333 0  -0.7333333333333334 -0.5333333333333333 0  -0.6666666666666667 -0.5333333333333333 0  -0.6 -0.5333333333333333 0  -0.5333333333333333 -0.5333333333333333 0  -0.4666666666666667 -0.5333333333333333 0  -0.4 -0.5333333333333333 0  -0.3333333333333334 -0.5333333333333333 0  -0.2666666666666667 -0.5333333333333333 0  -0.2 -0.5333333333333333 0  -0.1333333333333333 -0.5333333333333333 0  -0.06666666666666665 -0.5333333333333333 0  0 -0.5333333333333333 0  0.06666666666666665 -0.5333333333333333 0  0.1333333333333333 -0.5333333333333333 0  0.2 -0.5333333333333333 0  0.2666666666666666 -0.5333333333333333 0  0.3333333333333333 -0.5333333333333333 0  0.3999999999999999 -0.5333333333333333 0  0.4666666666666666 -0.5333333333333333 0  0.5333333333333334 -0.5333333333333333 0  0.6000000000000001 -0.5333333333333333 0  0.6666666666666667 -0.5333333333333333 0  0.7333333333333334 -0.5333333333333333 0  0.8 -0.5333333333333333 0  0.8666666666666667 -0.5333333333333333 0  0.9333333333333333 -0.5333333333333333 0  1 -0.5333333333333333 0  -1 -0.4666666666666667 0  -0.9333333333333333 -0.4666666666666667 0  -0.8666666666666667 -0.4666666666666667 0  -0.8 -0.4666666666666667 0  -0.7333333333333334 -0.4666666666666667 0  -0.6666666666666667 -0.4666666666666667 0  -0.6 -0.4666666666666667 0  -0.5333333333333333 -0.4666666666666667 0  -0.4666666666666667 -0.4666666666666667 0  -0.4 -0.4666666666666667 0  -0.3333333333333334 -0.4666666666666667 0  -0.2666666666666667 -0.4666666666666667 0  -0.2 -0.4666666666666667 0  -0.1333333333333333 -0.4666666666666667 0  -0.06666666666666665 -0.4666666666666667 0  0 -0.4666666666666667 0  0.06666666666666665 -0.4666666666666667 0  0.1333333333333333 -0.4666666666666667 0  0.2 -0.4666666666666667 0  0.2666666666666666 -0.4666666666666667 0  0.3333333333333333 -0.4666666666666667 0  0.3999999999999999 -0.4666666666666667 0  0.4666666666666666 -0.4666666666666667 0  0.5333333333333334 -0.4666666666666667 0  0.6000000000000001 -0.4666666666666667 0  0.6666666666666667 -0.4666666666666667 0  0.7333333333333334 -0.4666666666666667 0  0.8 -0.4666666666666667 0  0.8666666666666667 -0.4666666666666667 0  0.9333333333333333 -0.4666666666666667 0  1 -0.4666666666666667 0  -1 -0.4 0  -0.9333333333333333 -0.4 0  -0.8666666666666667 -0.4 0  -0.8 -0.4 0  -0.7333333333333334 -0.4 0  -0.6666666666666667 -0.4 0  -0.6 -0.4 0  -0.5333333333333333 -0.4 0  -0.4666666666666667 -0.4 0  -0.4 -0.4 0  -0.3333333333333334 -0.4 0  -0.2666666666666667 -0.4 0  -0.2 -0.4 0  -0.1333333333333333 -0.4 0  -0.06666666666666665 -0.4 0  0 -0.4 0  0.06666666666666665 -0.4 0  0.1333333333333333 -0.4 0  0.2 -0.4 0  0.2666666666666666 -0.4 0  0.3333333333333333 -0.4 0  0.3999999999999999 -0.4 0  0.4666666666666666 -0.4 0  0.5333333333333334 -0.4 0  0.6000000000000001 -0.4 0  0.6666666666666667 -0.4 0  0.7333333333333334 -0.4 0 
[...]
<PointData  Scalars="f_24"> 
<DataArray  type="Float64"  Name="f_24"  format="ascii">0.0000000000000000e+00  0.0000000000000000e+00  0.0000000000000000e+00  0.0000000000000000e+00  0.0000000000000000e+00  0.0000000000000000e+00  0.0000000000000000e+00  0.0000000000000000e+00  0.0000000000000000e+00  0.0000000000000000e+00  0.0000000000000000e+00  0.0000000000000000e+00  0.0000000000000000e+00  0.0000000000000000e+00  0.0000000000000000e+00  0.0000000000000000e+00  0.0000000000000000e+00  0.0000000000000000e+00  0.0000000000000000e+00  0.0000000000000000e+00  0.0000000000000000e+00  0.0000000000000000e+00  0.0000000000000000e+00  0.0000000000000000e+00  0.0000000000000000e+00  1.6591647718105931e-08  0.0000000000000000e+00  -9.7899849095446006e-08  0.0000000000000000e+00  0.0000000000000000e+00  1.0778880627981888e+01  0.0000000000000000e+00  9.8613746980875079e+06  1.0792343721231749e+07  1.5704804823380504e+07  1.1348685083909884e+07  1.5530285434779733e+07  8.9167935944079962e+06  1.4797298051015375e+07  6.3766956864003530e+06  1.3861816620575208e+07  4.6081900484586852e+06  1.3532324932978928e+07  2.8360085276077017e+06  1.4096117351233097e+07  1.5091748262403926e+06  1.4732081182996865e+07  1.0449716953284116e+06  1.5650302301150173e+07  9.9654955318317527e+05  1.7133383794084243e+07  1.5737543192002780e+06  1.9893299070142791e+07  1.0080039399334561e+06  2.9065182197253656e+07  -4.5597662928367546e+06  5.0630681105649933e+07  -1.5160844808335919e+07  8.3829158701657504e+07  -9.3208450760925636e+06  1.8223153219394439e+08  9.4119721844934041e+00  0.0000000000000000e+00  1.0792343704230294e+07  1.1897561072451493e+07  4.8639706850853143e+06  2.2464720740253907e+06  -3.0522543124298961e+06  -2.7885576574407802e+06  -6.8414694427220579e+06  -5.4711065246655187e+06  -7.6116286781179896e+06  -6.4035617874659793e+06  -8.3800680219052313e+06  -6.1130574736426864e+06  -8.6946635436979048e+06  -6.5579110454082321e+06  -8.2195953250605632e+06  -7.1943003803421017e+06  -8.3210522848291984e+06  -7.4962684152171398e+06  -8.4457074330213759e+06  -8.0845877649697354e+06  -9.6619040173759963e+06  -5.9425972018658677e+06  -1.6751482636947209e+07  -8.2093325543207885e+05  -2.7384437440538958e+07  2.7099394723860049e+06  -2.3686479020145524e+07  -1.4586302755897224e+07  -9.3208518611737210e+06  8.1793872219933021e+00  -5.6677267118392790e-10  1.5704804816105103e+07  4.8639706880890224e+06  1.8543939088830820e+06  -3.6372212646287815e+06  1.2827604841857194e+06  -3.7804155173903084e+06  3.3416851868617972e+06  -1.7466726169692522e+06  5.7474183460297715e+06  -1.8242142123441799e+06  8.3664817779379282e+06  -2.1343293513705209e+06  9.3247054639016520e+06  -1.9175247933649109e+06  1.0216504047987988e+07  -2.8537698694869773e+06  1.1792469533977862e+07  -3.7621144880186487e+06  1.2258509475492740e+07  -4.5897317746874858e+06  1.4894637551329330e+07  -9.3383268929777257e+06  2.4898720699653227e+07  -1.5502058202880066e+07  3.8498059881100185e+07  -2.5042629066150486e+07  4.6043835588384889e+07  -2.3686478553519215e+07  8.3829160019627661e+07  7.0720235312787985e+00  0.0000000000000000e+00  1.1348685031151805e+07  2.2464720905256039e+06  -3.6372212695486755e+06  6.1578636921662360e+05  -3.7436133362413440e+06  4.0134346433296095e+05  -2.8570200599666005e+06  -2.1535382983226236e+05  -4.6733289651520569e+06  -2.3452884203286585e+05  -5.5522628465694841e+06  -1.6540967607611951e+06  -5.2726735813363157e+06  -2.3848733700167560e+06  -5.9842515334525881e+06  -2.1729576886161142e+06  -6.0527144290491659e+06  -3.3266384630068759e+06  -4.7112116877364423e+06  -3.3976511321239038e+06  -7.8063589471596126e+06  1.7445823471517762e+05  -1.7889669511620011e+07  2.8022381209512856e+06  -2.5556578076073561e+07  1.0186349502394615e+07  -2.5042636204514679e+07  2.7099442900856752e+06  -1.5160850488923866e+07  6.0810984615464845e+00  1.2725235715951039e-09  1.5530285419900196e+07  -3.0522542810835252e+06  1.2827604896676240e+06  -3.7436133393462687e+06  1.1096104213820491e+06  -2.5785847822337546e+06  2.4387699291172498e+06  -3.8769432699408839e+06  4.8480252412408385e+06  -3.5913937600789247e+06  5.5600717370868409e+06  -2.9245140249718553e+06  7.1335044811499985e+06  -3.9357895932421312e+06  9.1071133248360865e+06  -4.5776747644825419e+06  9.3309322359788325e+06  -4.2922376157139428e+06  9.7343199560740683e+06  -7.1276913951005638e+06  1.6241460310302403e+07  -1.1914595419039767e+07  2.6799044275204059e+07  -1.7097865157624226e+07  3.1475000124088980e+07  -2.5556586699174866e+07  3.8498068003527291e+07  -2.7384438319694754e+07  5.0630680655187838e+07  5.1981484509943527e+00  0.0000000000000000e+00  8.9167935176888034e+06  -2.7885576105467109e+06  -3.7804155612428654e+06  4.0134347408107342e+05  -2.5785847862545941e+06  1.8867061496482326e+06  -4.0195688691302729e+06  2.7260824478498865e+06  -3.8407918254062589e+06  1.3391736176949004e+06  -3.8702341480227332e+06  1.3126744735349847e+06  -5.1017785294218119e+06  1.2697465524970395e+06  -5.1369216526335692e+06  7.5436924517499419e+03  -4.0114367794679906e+06  -1.0564987856075044e+06  -4.3964823120307224e+06  8.0342085393705324e+05  -1.0266363592090918e+07  1.8494195774185178e+06  -1.5461900411944341e+07  4.8415517823032662e+06  -1.7097885817784935e+07  2.8022540850808257e+06  -1.5502064283034464e+07  -8.2093394474088191e+05  -4.5597682262532581e+06  4.4150295052213817e+00  0.0000000000000000e+00  1.4797298043128964e+07  -6.8414693964207685e+06  3.3416851825059233e+06  -2.8570200424007452e+06  2.4387699329389576e+06  -4.0195688734433497e+06  3.2690976098707514e+06  -3.6045157789788167e+06  3.2450848088405393e+06  -3.6205991287843133e+06  5.3371965545999687e+06  -4.4915626783556510e+06  6.6148945951087158e+06  -4.3068537470209124e+06  7.1802725950304829e+06  -4.3635164337520488e+06  7.7254487477424378e+06  -5.1614305145419864e+06  9.9859006492005959e+06  -8.2170254552011080e+06  1.6776642299093498e+07  -1.0737406912921624e+07  2.0493981688598387e+07  -1.5461936300367251e+07  2.6799073854672015e+07  -1.7889675466845490e+07  2.4898715433571342e+07  -1.6751476936784374e+07  2.9065181278511900e+07  3.7239169553272577e+00  0.0000000000000000e+00  6.3766955849431017e+06  -5.4711064584654914e+06  -1.7466726891658658e+06  -2.1535380379115557e+05  -3.8769433094302276e+06  2.7260824646625142e+06  -3.6045157860647528e+06  2.7580970257547558e+06  -3.7364971111187171e+06  3.8520348767367899e+06  -4.5654760204482079e+06  3.0163301177698416e+06  -4.3034466198006375e+06  2.4426049965631980e+06  -4.7443170882462263e+06  2.0632428836325016e+06  -4.0955216344220275e+06  1.2444153853627935e+06  -5.3536874291875679e+06  2.2246471297305054e+06  -9.7033456333622895e+06  3.0018274665589724e+06  -1.0737473799515670e+07  1.8494733588713913e+06  -1.1914607309447344e+07  1.7444557477501672e+05  -9.3383172434757091e+06  -5.9425982865061965e+06  1.0080000170163952e+06  3.1173055066525013e+00  -2.1626249052091782e-09  1.3861816621261245e+07  -7.6116286105642356e+06  5.7474183308330569e+06  -4.6733289400973478e+06  4.8480252588053690e+06  -3.8407918219932127e+06  3.2450848142183828e+06  -3.7364971148840636e+06  4.3873196354884226e+06  -4.4731506831880184e+06  4.2823361749173189e+06  -4.1059330893451544e+06  5.7854359629509849e+06  -5.1621015163640026e+06  6.9027008681358434e+06  -4.7198185078942310e+06  6.1563638301639026e+06  -4.7967012475118674e+06  9.6423280464070812e+06  -7.4897968347611167e+06  1.3776635103631815e+07  -9.7034599746461250e+06  1.6776736213182598e+07  -1.0266380084757738e+07  1.6241432828969732e+07  -7.8063346450547874e+06  1.4894633514428962e+07  -9.6619079165847450e+06  1.9893301640965313e+07  2.5880091480674485e+00  0.0000000000000000e+00  4.6081899267560095e+06  -6.4035617080345526e+06  -1.8242143299987242e+06  -2.3452877549751289e+05  -3.5913938380101672e+06  1.3391736433759371e+06  -3.6205991639107098e+06  3.8520348967553950e+06  -4.4731506950471709e+06  3.7289201195652834e+06  -4.0352585151975672e+06  4.7356937156257937e+06  -5.4900322429002831e+06  4.1083432255426976e+06  -4.3956480789684262e+06  2.0377286155644967e+06  -3.0616472468775385e+06  2.4566843999221972e+06  -7.0309969530631388e+06  3.8937684320913386e+06  -7.4899869816736141e+06  2.2248045066123595e+06  -8.2170516680247802e+06  8.0336769199598441e+05  -7.1276462807981167e+06  -3.3976586460626703e+06  -4.5897441202296000e+06  -8.0845793053035010e+06  1.5737517385740506e+06  2.1291616055272877e+00  0.0000000000000000e+00  1.3532324945532372e+07  -8.3800679491210412e+06  8.3664817789612971e+06  -5.5522628139065877e+06  5.5600717453288529e+06  -3.8702341287256274e+06  5.3371965802408485e+06  -4.5654760319544794e+06  4.2823361882986696e+06  -4.0352585198318958e+06  5.3217466006314652e+06  -5.7683178773428285e+06  5.1214726472763652e+06  -4.0966962654995550e+06  4.8441552470110161e+06  -3.8116451970652249e+06  5.6210824521241514e+06  -6.0674709219810730e+06  1.0111426739507159e+07  -7.0312923158475626e+06  9.6425779839224424e+06  -5.3537235122532137e+06  9.9858040414261054e+06  -4.3963985439730743e+06  9.7343060646078810e+06  -4.7112341329060709e+06  1.2258526621900301e+07  -8.4457083933284245e+06  1.7133380895002522e+07  1.7342154349620091e+00  0.0000000000000000e+00  2.8360083696852927e+06  -6.1130573626185246e+06  -2.1343295204826738e+06  -1.6540966751959107e+06  -2.9245141338354889e+06  1.3126745349768498e+06  -4.4915627701144554e+06  3.0163301587388958e+06  -4.1059331293801512e+06  4.7356937413696935e+06  -5.7683178986501815e+06  4.5478635460131718e+06  -3.5810899200685923e+06  4.0212084372276762e+06  -4.7940953979428047e+06  3.4391536713291449e+06  -4.4915266770185679e+06  4.1664107227674625e+06  -6.0679008966222070e+06  2.4570570574936229e+06  -4.7967500356853930e+06  1.2442521026181616e+06  -5.1612896057287455e+06  -1.0565208437876273e+06  -4.2922821695430195e+06  -3.3266044899830306e+06  -3.7621183285689303e+06  -7.4962763431444364e+06  9.9655191450635286e+05  1.3969429293864526e+00  5.1959904354151681e-06  1.4096117390849261e+07  -8.6946634682297707e+06  9.3247054679592047e+06  -5.2726735236935401e+06  7.1335044998744661e+06  -5.1017785243289927e+06  6.6148946396845449e+06  -4.3034466212951513e+06  5.7854360032900153e+06  -5.4900322782145999e+06  5.1214726814285535e+06  -3.5810899277652553e+06  4.5841517417172408e+06  -6.0169393096027644e+06  5.1899716229791073e+06  -3.1161240497503947e+06  4.4192636317864386e+06  -4.4921024235731643e+06  5.6215981049348582e+06  -3.0617065826570424e+06  6.1561075885269307e+06  -4.0952978289804207e+06  7.7254166128817210e+06  -4.0115149481546511e+06  9.3309932156800646e+06  -6.0527187103149975e+06  1.1792450933840130e+07  -8.3210417013954334e+06  1.5650302598542077e+07  1.1114356653452779e+00  0.0000000000000000e+00  1.5091746150735612e+06  -6.5579109106238522e+06  -1.9175250042326702e+06  -2.3848732537698038e+06  -3.9357897756435266e+06  1.2697466670991289e+06  -4.3068538872732250e+06  2.4426050750133744e+06  -5.1621016362044765e+06  4.1083433017197768e+06  -4.0966963235542001e+06  4.0212084674761407e+06  -6.0169393485318916e+06  5.1686874000107087e+06  -1.8899155399491871e+06  5.8156930612543470e+05  -3.1168287938493211e+06  3.4398094925418086e+06  -3.8117132453965987e+06  2.0373596158394623e+06  -4.7194921936536049e+06  2.0632014494315819e+06  -4.3636478452338791e+06  7.6463716516560144e+03  -4.5776820818478046e+06  -2.1729931323899836e+06  -2.8537499288451336e+06  -7.1942984474384645e+06  1.0449654245690864e+06  8.7210459362397652e-01  0.0000000000000000e+00  1.4732081249617552e+07  -8.2195952259696564e+06  1.0216504063273689e+07  -5.9842514847634165e+06  9.1071133880420197e+06  -5.1369216550347162e+06  7.1802726610554727e+06  -4.7443171200595871e+06  6.9027009684400782e+06  -4.3956481293271286e+06  4.8441553212862015e+06  -4.7940954832527693e+06  5.1899717349060671e+06  -1.8899155871485630e+06  -1.9309940636255583e+05  -1.8906965393768298e+06  5.1907319110934315e+06  -4.7941677590929260e+06  4.8436720189435128e+06  -4.3952102190631907e+06  6.9026528589974996e+06  -4.7445181881697569e+06  7.1804313674422009e+06  -5.1369291519869622e+06  9.1070503810288627e+06  -5.9842134415659253e+06  1.0216507712305205e+07  -8.2196089126883494e+06  1.4732085837139050e+07  6.7368003924886799e-01  0.0000000000000000e+00  1.0449714160279937e+06  -7.1943002096088426e+06  -2.8537701718670214e+06  -2.1729574956139624e+06  -4.5776750409132391e+06  7.5438591253820614e+03  -4.3635166639189264e+06  2.0632430573335027e+06  -4.7198187330776080e+06  2.0377287639039457e+06  -3.8116453895458984e+06  3.4391538446972314e+06  -3.1161241862572827e+06  5.8156930609444110e+05  -1.8906964921649485e+06  5.1694865107272202e+06  -6.0170134452435765e+06  4.0206381137158573e+06  -4.0961620722108991e+06  4.1082929289945266e+06  -5.1623832014454529e+06  2.4428300791117507e+06  -4.3068602274828451e+06  1.2696448034817718e+06  -3.9357277601846796e+06  -2.3848655234811837e+06  -1.9175533042823875e+06  -6.5578995341624022e+06  1.5091761746870358e+06  5.1121170148710149e-01  -3.8516795477913417e-09  1.5650302405884113e+07  -8.3210521771578593e+06  1.1792469607628632e+07  -6.0527144066034127e+06  9.3309323451298829e+06  -4.0114368051884668e+06  7.7254488968129680e+06  -4.0955217350462326e+06  6.1563639976926800e+06  -3.0616473395354352e+06  5.6210826073632604e+06  -4.4915267567533860e+06  4.4192636317178411e+06  -3.1168286572548365e+06  5.1907317991797011e+06  -6.0170134063135721e+06  4.5835485870253062e+06  -3.5804987990648309e+06  5.1214229201093651e+06  -5.4903864158186950e+06  5.7857258023260189e+06  -4.3034475049937386e+06  6.6147440348044746e+06  -5.1016847972757798e+06  7.1335185055933241e+06  -5.2727213783245264e+06  9.3247256450724080e+06  -8.6946566949353404e+06  1.4096109875457209e+07  3.8006865291232139e-01  0.0000000000000000e+00  9.9654914876246871e+05  -7.4962681516516274e+06  -3.7621149400085029e+06  -3.3266381851739236e+06  -4.2922380020713052e+06  -1.0564985298361122e+06  -5.1614308736370048e+06  1.2444156201066540e+06  -4.7967015062067937e+06  2.4566845299646752e+06  -6.0674710770554841e+06  4.1664107227244610e+06  -4.4921023437098796e+06  3.4398093190669040e+06  -4.7941676738364175e+06  4.0206380834499137e+06  -3.5804987913726624e+06  4.5478144920397829e+06  -5.7687161383224959e+06  4.7360316057827575e+06  -4.1059271806373121e+06  3.0161293946122131e+06  -4.4914358576492146e+06  1.3126981603455024e+06  -2.9245892786749732e+06  -1.6540643169648661e+06  -2.1343167411187175e+06  -6.1130752502802452e+06  2.8360119702319736e+06  2.7593934407633636e-01  -4.1149278689273980e-09  1.7133383972364265e+07  -8.4457073147700392e+06  1.2258509599737080e+07  -4.7112116494107088e+06  9.7343201011641733e+06  -4.3964823415738149e+06  9.9859008102890179e+06  -5.3536874409020841e+06  9.6423281124418136e+06  -7.0309969001970496e+06  1.0111426739401223e+07  -6.0679007415074594e+06  5.6215979496366177e+06  -3.8117130527785579e+06  4.8436719447811926e+06  -4.0961620141003048e+06  5.1214228859835137e+06  -5.7687161170104146e+06  5.3221022673818851e+06  -4.0352472305939579e+06  4.2820966820919290e+06  -4.5653200270624394e+06  5.3372314162117718e+06  -3.8703391024296978e+06  5.5601176170710288e+06  -5.5522400417115670e+06  8.3664494599303761e+06  -8.3800593042453043e+06  1.3532329848650087e+07  1.9483159416578133e-01  0.0000000000000000e+00  1.5737537170002870e+06  -8.0845874038167773e+06  -4.5897323620956289e+06  -3.3976508228637008e+06  -7.1276918513615774e+06  8.0342109241395479e+05  -8.2170257696616482e+06  2.2246472164905001e+06  -7.4897969801876377e+06  3.8937684316830006e+06  -7.0312923682493791e+06  2.4570569274340360e+06  -3.0617064900686168e+06  2.0373594672879453e+06  -4.3952101689023022e+06  4.1082928526915601e+06  -5.4903863805704014e+06  4.7360315800086688e+06  -4.0352472259627329e+06  3.7286659579738649e+06  -4.4729780541490884e+06  3.8520793442805246e+06  -3.6207316558568017e+06  1.3392325565823859e+06  -3.5913603354930948e+06  -2.3457758825026234e+05  -1.8242019909674195e+06  -6.4035491888578497e+06  4.6081807158273617e+06  1.3307260034545548e-01  0.0000000000000000e+00  1.9893299292353287e+07  -9.6619037681484260e+06  1.4894637650652755e+07  -7.8063588160765897e+06  1.6241460441150986e+07  -1.0266363517097015e+07  1.6776642367518561e+07  -9.7033454972139616e+06  1.3776635103430068e+07  -7.4899868354966762e+06  9.6425779172143750e+06  -4.7967497769523943e+06  6.1561074212522162e+06  -4.7194919680913612e+06  6.9026527590305731e+06  -5.1623830813509896e+06  5.7857257621358978e+06  -4.1059271405221568e+06  4.2820966687424639e+06  -4.4729780422866913e+06  4.3873678921067882e+06  -3.7366458514310364e+06  3.2451529788665045e+06  -3.8407474153840505e+06  4.8479596347798118e+06  -4.6733119195299940e+06  5.7474394884188101e+06  -7.6116468150310051e+06  1.3861818766846888e+07  8.7309097453403581e-02  0.0000000000000000e+00  1.0080031048409299e+06  -5.9425967767779082e+06  -9.3383276207463741e+06  1.7445853543852051e+05  -1.1914595912264243e+07  1.8494197236916369e+06  -1.0737407179425247e+07  3.0018274657970518e+06  -9.7034601104916818e+06  2.2248044195400351e+06  -5.3537234997756546e+06  1.2442518676700811e+06  -4.0952977289003064e+06  2.0632012750555659e+06  -4.7445181569627263e+06  2.4428300001892857e+06  -4.3034475038169660e+06  3.0161293534620032e+06  -4.5653200156494174e+06  3.8520793242291412e+06  -3.7366458476688177e+06  2.7581685618923609e+06  -3.6044649127881695e+06  2.7260043037471198e+06  -3.8769234454437867e+06  -2.1532324021823102e+05  -1.7467015077563042e+06  -5.4711029950016290e+06  6.3767020213190308e+06  5.4506537101498581e-02  0.0000000000000000e+00  2.9065182358155705e+07  -1.6751482156926114e+07  2.4898720831875727e+07  -1.7889669313021466e+07  2.6799044420969825e+07  -1.5461900200912530e+07  2.0493981686922114e+07  -1.0737473529830813e+07  1.6776736143949786e+07  -8.2170513538912768e+06  9.9858038796788491e+06  -5.1612892460684823e+06  7.7254164648786439e+06  -4.3636476138566472e+06  7.1804313025189666e+06  -4.3068600863452069e+06  6.6147439908589870e+06  -4.4914357654896071e+06  5.3372313907931959e+06  -3.6207316206226549e+06  3.2451529735230994e+06  -3.6044649056990556e+06  3.2690147366613415e+06  -4.0195471667202804e+06  2.4388075547315236e+06  -2.8570568768322133e+06  3.3416884582255972e+06  -6.8414545582519248e+06  1.4797290208653208e+07  3.1950731342943815e-02  0.0000000000000000e+00  -4.5597675312286112e+06  -8.2093262967115804e+05  -1.5502059179066004e+07  2.8022383790274002e+06  -1.7097865681863248e+07  4.8415517832106054e+06  -1.5461936511904953e+07  1.8494732087883761e+06  -1.0266380157619132e+07  8.0336745457775868e+05  -4.3963985141294291e+06  -1.0565211009075791e+06  -4.0115149244974293e+06  7.6462027318310184e+03  -5.1369291516254963e+06  1.2696446872051982e+06  -5.1016848036092315e+06  1.3126980980616829e+06  -3.8703391222403790e+06  1.3392325306260593e+06  -3.8407474189229407e+06  2.7260042868970591e+06  -4.0195471624106541e+06  1.8867464816863604e+06  -2.5786266898358460e+06  4.0134665459975373e+05  -3.7803946962603754e+06  -2.7885712100931131e+06  8.9167926960366592e+06  1.7246209004771005e-02  0.0000000000000000e+00  5.0630681110723399e+07  -2.7384436690233260e+07  3.8498060117325872e+07  -2.5556577643781334e+07  3.1475000114673253e+07  -1.7097885279414557e+07  2.6799073713885579e+07  -1.1914606815387784e+07  1.6241432693222659e+07  -7.1276458263868000e+06  9.7343059202617742e+06  -4.2922817799997991e+06  9.3309931107832771e+06  -4.5776818009988070e+06  9.1070503218229190e+06  -3.9357275744898906e+06  7.1335184893767536e+06  -2.9245891680430640e+06  5.5601176099770004e+06  -3.5913602568886564e+06  4.8479596175628882e+06  -3.8769234058045214e+06  2.4388075509518478e+06  -2.5786266858116374e+06  1.1096134698723545e+06  -3.7435883875819095e+06  1.2827424712768407e+06  -3.0522554087511403e+06  1.5530292012651885e+07  8.3170375215909555e-03  0.0000000000000000e+00  -1.5160846934373138e+07  2.7099403240478295e+06  -2.5042630119634058e+07  1.0186349489304474e+07  -2.5556587179743305e+07  2.8022537986367918e+06  -1.788967