<?xml version="1.0"?>
<VTKFile type="UnstructuredGrid"  version="0.1"  >
<UnstructuredGrid>
<Piece  NumberOfPoints="961" NumberOfCells="1800">
<Points>
<DataArray  type="Float64"  NumberOfComponents="3"  format="ascii">-1 -1 0  -0.9333333333333333 -1 0  -0.8666666666666667 -1 0  -0.8 -1 0  -0.7333333333333334 -1 0  -0.6666666666666667 -1 0  -0.6 -1 0  -0.5333333333333333 -1 0  -0.4666666666666667 -1 0  -0.4 -1 0  -0.3333333333333334 -1 0  -0.2666666666666667 -1 0  -0.2 -1 0  -0.1333333333333333 -1 0  -0.06666666666666665 -1 0  0 -1 0  0.06666666666666665 -1 0  0.1333333333333333 -1 0  0.2 -1 0  0.2666666666666666 -1 0  0.3333333333333333 -1 0  0.3999999999999999 -1 0  0.4666666666666666 -1 0  0.5333333333333334 -1 0  0.6000000000000001 -1 0  0.6666666666666667 -1 0  0.7333333333333334 -1 0  0.8 -1 0  0.8666666666666667 -1 0  0.9333333333333333 -1 0  1 -1 0  -1 -0.9333333333333333 0  -0.9333333333333333 -0.9333333333333333 0  -0.8666666666666667 -0.9333333333333333 0  -0.8 -0.9333333333333333 0  -0.7333333333333334 -0.9333333333333333 0  -0.6666666666666667 -0.9333333333333333 0  -0.6 -0.9333333333333333 0  -0.5333333333333333 -0.9333333333333333 0  -0.4666666666666667 -0.9333333333333333 0  -0.4 -0.9333333333333333 0  -0.3333333333333334 -0.9333333333333333 0  -0.2666666666666667 -0.9333333333333333 0  -0.2 -0.9333333333333333 0  -0.1333333333333333 -0.9333333333333333 0  -0.06666666666666665 -0.9333333333333333 0  0 -0.9333333333333333 0  0.06666666666666665 -0.9333333333333333 0  0.1333333333333333 -0.9333333333333333 0  0.2 -0.9333333333333333 0  0.2666666666666666 -0.9333333333333333 0  0.3333333333333333 -0.9333333333333333 0  0.3999999999999999 -0.9333333333333333 0  0.4666666666666666 -0.9333333333333333 0  0.5333333333333334 -0.9333333333333333 0  0.6000000000000001 -0.9333333333333333 0  0.6666666666666667 -0.9333333333333333 0  0.7333333333333334 -0.9333333333333333 0  0.8 -0.9333333333333333 0  0.8666666666666667 -0.9333333333333333 0  0.9333333333333333 -0.9333333333333333 0  1 -0.9333333333333333 0  -1 -0.8666666666666667 0  -0.9333333333333333 -0.8666666666666667 0  -0.8666666666666667 -0.8666666666666667 0  -0.8 -0.8666666666666667 0  -0.7333333333333334 -0.8666666666666667 0  -0.6666666666666667 -0.8666666666666667 0  -0.6 -0.8666666666666667 0  -0.5333333333333333 -0.8666666666666667 0  -0.4666666666666667 -0.8666666666666667 0  -0.4 -0.8666666666666667 0  -0.3333333333333334 -0.8666666666666667 0  -0.2666666666666667 -0.8666666666666667 0  -0.2 -0.8666666666666667 0  -0.1333333333333333 -0.8666666666666667 0  -0.06666666666666665 -0.8666666666666667 0  0 -0.8666666666666667 0  0.06666666666666665 -0.8666666666666667 0  0.1333333333333333 -0.8666666666666667 0  0.2 -0.8666666666666667 0  0.2666666666666666 -0.8666666666666667 0  0.3333333333333333 -0.8666666666666667 0  0.3999999999999999 -0.8666666666666667 0  0.4666666666666666 -0.8666666666666667 0  0.5333333333333334 -0.8666666666666667 0  0.6000000000000001 -0.8666666666666667 0  0.6666666666666667 -0.8666666666666667 0  0.7333333333333334 -0.8666666666666667 0  0.8 -0.8666666666666667 0  0.8666666666666667 -0.8666666666666667 0  0.9333333333333333 -0.8666666666666667 0  1 -0.8666666666666667 0  -1 -0.8 0  -0.9333333333333333 -0.8 0  -0.8666666666666667 -0.8 0  -0.8 -0.8 0  -0.7333333333333334 -0.8 0  -0.6666666666666667 -0.8 0  -0.6 -0.8 0  -0.5333333333333333 -0.8 0  -0.4666666666666667 -0.8 0  -0.4 -0.8 0  -0.3333333333333334 -0.8 0  -0.2666666666666667 -0.8 0  -0.2 -0.8 0  -0.1333333333333333 -0.8 0  -0.06666666666666665 -0.8 0  0 -0.8 0  0.06666666666666665 -0.8 0  0.1333333333333333 -0.8 0  0.2 -0.8 0  0.2666666666666666 -0.8 0  0.3333333333333333 -0.8 0  0.3999999999999999 -0.8 0  0.4666666666666666 -0.8 0  0.5333333333333334 -0.8 0  0.6000000000000001 -0.8 0  0.6666666666666667 -0.8 0  0.7333333333333334 -0.8 0  0.8 -0.8 0  0.8666666666666667 -0.8 0  0.9333333333333333 -0.8 0  1 -0.8 0  -1 -0.7333333333333334 0  -0.9333333333333333 -0.7333333333333334 0  -0.8666666666666667 -0.7333333333333334 0  -0.8 -0.7333333333333334 0  -0.7333333333333334 -0.7333333333333334 0  -0.6666666666666667 -0.7333333333333334 0  -0.6 -0.7333333333333334 0  -0.5333333333333333 -0.7333333333333334 0  -0.4666666666666667 -0.7333333333333334 0  -0.4 -0.7333333333333334 0  -0.3333333333333334 -0.7333333333333334 0  -0.2666666666666667 -0.7333333333333334 0  -0.2 -0.7333333333333334 0  -0.1333333333333333 -0.7333333333333334 0  -0.06666666666666665 -0.7333333333333334 0  0 -0.7333333333333334 0  0.06666666666666665 -0.7333333333333334 0  0.1333333333333333 -0.7333333333333334 0  0.2 -0.7333333333333334 0  0.2666666666666666 -0.7333333333333334 0  0.3333333333333333 -0.7333333333333334 0  0.3999999999999999 -0.7333333333333334 0  0.4666666666666666 -0.7333333333333334 0  0.5333333333333334 -0.7333333333333334 0  0.6000000000000001 -0.7333333333333334 0  0.6666666666666667 -0.7333333333333334 0  0.7333333333333334 -0.7333333333333334 0  0.8 -0.7333333333333334 0  0.8666666666666667 -0.7333333333333334 0  0.9333333333333333 -0.7333333333333334 0  1 -0.7333333333333334 0  -1 -0.6666666666666667 0  -0.9333333333333333 -0.6666666666666667 0  -0.8666666666666667 -0.6666666666666667 0  -0.8 -0.6666666666666667 0  -0.7333333333333334 -0.6666666666666667 0  -0.6666666666666667 -0.6666666666666667 0  -0.6 -0.6666666666666667 0  -0.5333333333333333 -0.6666666666666667 0  -0.4666666666666667 -0.6666666666666667 0  -0.4 -0.6666666666666667 0  -0.3333333333333334 -0.6666666666666667 0  -0.2666666666666667 -0.6666666666666667 0  -0.2 -0.6666666666666667 0  -0.1333333333333333 -0.6666666666666667 0  -0.06666666666666665 -0.6666666666666667 0  0 -0.6666666666666667 0  0.06666666666666665 -0.6666666666666667 0  0.1333333333333333 -0.6666666666666667 0  0.2 -0.6666666666666667 0  0.2666666666666666 -0.6666666666666667 0  0.3333333333333333 -0.6666666666666667 0  0.3999999999999999 -0.6666666666666667 0  0.4666666666666666 -0.6666666666666667 0  0.5333333333333334 -0.6666666666666667 0  0.6000000000000001 -0.6666666666666667 0  0.6666666666666667 -0.6666666666666667 0  0.7333333333333334 -0.6666666666666667 0  0.8 -0.6666666666666667 0  0.8666666666666667 -0.6666666666666667 0  0.9333333333333333 -0.6666666666666667 0  1 -0.6666666666666667 0  -1 -0.6 0  -0.9333333333333333 -0.6 0  -0.8666666666666667 -0.6 0  -0.8 -0.6 0  -0.7333333333333334 -0.6 0  -0.6666666666666667 -0.6 0  -0.6 -0.6 0  -0.5333333333333333 -0.6 0  -0.4666666666666667 -0.6 0  -0.4 -0.6 0  -0.3333333333333334 -0.6 0  -0.2666666666666667 -0.6 0  -0.2 -0.6 0  -0.1333333333333333 -0.6 0  -0.06666666666666665 -0.6 0  0 -0.6 0  0.06666666666666665 -0.6 0  0.1333333333333333 -0.6 0  0.2 -0.6 0  0.2666666666666666 -0.6 0  0.3333333333333333 -0.6 0  0.3999999999999999 -0.6 0  0.4666666666666666 -0.6 0  0.5333333333333334 -0.6 0  0.6000000000000001 -0.6 0  0.6666666666666667 -0.6 0  0.7333333333333334 -0.6 0  0.8 -0.6 0  0.8666666666666667 -0.6 0  0.9333333333333333 -0.6 0  1 -0.6 0  -1 -0.5333333333333333 0  -0.9333333333333333 -0.5333333333333333 0  -0.8666666666666667 -0.5333333333333333 0  -0.8 -0.5333333333333333 0  -0.7333333333333334 -0.5333333333333333 0  -0.6666666666666667 -0.5333333333333333 0  -0.6 -0.5333333333333333 0  -0.5333333333333333 -0.5333333333333333 0  -0.4666666666666667 -0.5333333333333333 0  -0.4 -0.5333333333333333 0  -0.3333333333333334 -0.5333333333333333 0  -0.2666666666666667 -0.5333333333333333 0  -0.2 -0.5333333333333333 0  -0.1333333333333333 -0.5333333333333333 0  -0.06666666666666665 -0.5333333333333333 0  0 -0.5333333333333333 0  0.06666666666666665 -0.5333333333333333 0  0.1333333333333333 -0.5333333333333333 0  0.2 -0.5333333333333333 0  0.2666666666666666 -0.5333333333333333 0  0.3333333333333333 -0.5333333333333333 0  0.3999999999999999 -0.5333333333333333 0  0.4666666666666666 -0.5333333333333333 0  0.5333333333333334 -0.5333333333333333 0  0.6000000000000001 -0.5333333333333333 0  0.6666666666666667 -0.5333333333333333 0  0.7333333333333334 -0.5333333333333333 0  0.8 -0.5333333333333333 0  0.8666666666666667 -0.5333333333333333 0  0.9333333333333333 -0.5333333333333333 0  1 -0.5333333333333333 0  -1 -0.4666666666666667 0  -0.9333333333333333 -0.4666666666666667 0  -0.8666666666666667 -0.4666666666666667 0  -0.8 -0.4666666666666667 0  -0.7333333333333334 -0.4666666666666667 0  -0.6666666666666667 -0.4666666666666667 0  -0.6 -0.4666666666666667 0  -0.5333333333333333 -0.4666666666666667 0  -0.4666666666666667 -0.4666666666666667 0  -0.4 -0.4666666666666667 0  -0.3333333333333334 -0.4666666666666667 0  -0.2666666666666667 -0.4666666666666667 0  -0.2 -0.4666666666666667 0  -0.1333333333333333 -0.4666666666666667 0  -0.06666666666666665 -0.4666666666666667 0  0 -0.4666666666666667 0  0.06666666666666665 -0.4666666666666667 0  0.1333333333333333 -0.4666666666666667 0  0.2 -0.4666666666666667 0  0.2666666666666666 -0.4666666666666667 0  0.3333333333333333 -0.4666666666666667 0  0.3999999999999999 -0.4666666666666667 0  0.4666666666666666 -0.4666666666666667 0  0.5333333333333334 -0.4666666666666667 0  0.6000000000000001 -0.4666666666666667 0  0.6666666666666667 -0.4666666666666667 0  0.7333333333333334 -0.4666666666666667 0  0.8 -0.4666666666666667 0  0.8666666666666667 -0.4666666666666667 0  0.9333333333333333 -0.4666666666666667 0  1 -0.4666666666666667 0  -1 -0.4 0  -0.9333333333333333 -0.4 0  -0.8666666666666667 -0.4 0  -0.8 -0.4 0  -0.7333333333333334 -0.4 0  -0.6666666666666667 -0.4 0  -0.6 -0.4 0  -0.5333333333333333 -0.4 0  -0.4666666666666667 -0.4 0  -0.4 -0.4 0  -0.3333333333333334 -0.4 0  -0.2666666666666667 -0.4 0  -0.2 -0.4 0  -0.1333333333333333 -0.4 0  -0.06666666666666665 -0.4 0  0 -0.4 0  0.06666666666666665 -0.4 0  0.1333333333333333 -0.4 0  0.2 -0.4 0  0.2666666666666666 -0.4 0  0.3333333333333333 -0.4 0  0.3999999999999999 -0.4 0  0.4666666666666666 -0.4 0  0.5333333333333334 -0.4 0  0.6000000000000001 -0.4 0  0.6666666666666667 -0.4 0  0.7333333333333334 -0.4 0 
[...]
<PointData  Scalars="f_24"> 
<DataArray  type="Float64"  Name="f_24"  format="ascii">0.0000000000000000e+00  0.0000000000000000e+00  0.0000000000000000e+00  0.0000000000000000e+00  0.0000000000000000e+00  0.0000000000000000e+00  0.0000000000000000e+00  0.0000000000000000e+00  0.0000000000000000e+00  0.0000000000000000e+00  0.0000000000000000e+00  0.0000000000000000e+00  0.0000000000000000e+00  0.0000000000000000e+00  0.0000000000000000e+00  0.0000000000000000e+00  0.0000000000000000e+00  0.0000000000000000e+00  0.0000000000000000e+00  0.0000000000000000e+00  0.0000000000000000e+00  0.0000000000000000e+00  0.0000000000000000e+00  0.0000000000000000e+00  0.0000000000000000e+00  -6.4063352029326427e-08  0.0000000000000000e+00  -2.6922458501247651e-07  0.0000000000000000e+00  0.0000000000000000e+00  1.5143762367255743e+01  0.0000000000000000e+00  1.2930005548972113e+07  1.3553252150978252e+07  1.9879268881913867e+07  1.3405501769397127e+07  1.8958598317991111e+07  9.5456293408057019e+06  1.7633412595576528e+07  5.8188464542014888e+06  1.6231291782783877e+07  3.3106687584825093e+06  1.5767351914258400e+07  8.4322030518697796e+05  1.6576071243796056e+07  -1.0032621735728229e+06  1.7474555295517456e+07  -1.6641623173448930e+06  1.8750326532595579e+07  -1.7620807457716810e+06  2.0813039167755954e+07  -9.7087084884849889e+05  2.4699275601530783e+07  -1.7048020040406599e+06  3.7685940109073557e+07  -9.2814978341858424e+06  6.8287769490239978e+07  -2.3625343413843036e+07  1.1558592026745570e+08  -1.4530470761317015e+07  2.5479943034332860e+08  1.3223327643055566e+01  0.0000000000000000e+00  1.3553252124410721e+07  1.4247103650140651e+07  4.1118815450303964e+06  5.2848938124656177e+05  -6.5506531868583336e+06  -5.7565557886866722e+06  -1.0956945641481811e+07  -8.6088511839342378e+06  -1.1208386176841198e+07  -9.1959395429972112e+06  -1.1696184417275209e+07  -8.3215244765021913e+06  -1.1795656799105525e+07  -8.7127231799433976e+06  -1.1012996935361028e+07  -9.5876845867108367e+06  -1.1253833213036083e+07  -1.0215751293925129e+07  -1.1758072473495590e+07  -1.1501154013506660e+07  -1.4054982792152483e+07  -9.2378084097573198e+06  -2.4843125341691665e+07  -2.9779203050296623e+06  -4.0666784472569227e+07  1.2461672785867448e+06  -3.5862089180958636e+07  -2.2676686634163130e+07  -1.4530480288747827e+07  1.1491610370473628e+01  2.2670906847357116e-09  1.9879268866788767e+07  4.1118815484112850e+06  1.6270032997195705e+05  -6.7810834326201351e+06  8.9317885792301607e+05  -5.4678483980507096e+06  5.0085817107580379e+06  -1.7191830327945983e+06  8.9651278240336161e+06  -1.4734375969086892e+06  1.2816458210870130e+07  -1.8283788266681375e+06  1.4175304516203914e+07  -1.5361722251935534e+06  1.5407113191409433e+07  -2.8681688816645653e+06  1.7606568962105792e+07  -4.1601865364134037e+06  1.8227442698006745e+07  -5.4038177535024844e+06  2.1748311881193630e+07  -1.2392167776233176e+07  3.5211012774791233e+07  -2.1925500973698590e+07  5.3059965708630010e+07  -3.6811369814045116e+07  6.2151174214881241e+07  -3.5862088526354842e+07  1.1558592212339799e+08  9.9358226491182506e+00  0.0000000000000000e+00  1.3405501689122682e+07  5.2848940356259467e+05  -6.7810834398444202e+06  3.0250925359777006e+05  -4.8931175147792920e+06  1.4280312217238811e+06  -2.8646759253190449e+06  8.7913676244744274e+05  -5.3787662687401222e+06  7.5297952255827957e+05  -6.7587401325195562e+06  -1.3699036242079011e+06  -6.4801345828482723e+06  -2.4593997106285733e+06  -7.5153305370663367e+06  -2.1502188952729641e+06  -7.5755935086116036e+06  -3.6874604077391047e+06  -5.5931640619405005e+06  -3.6652989670858714e+06  -9.8105494237983581e+06  1.4170151030811628e+06  -2.3989643646174647e+07  4.8083357960061561e+06  -3.5508137697675794e+07  1.3752034718078410e+07  -3.6811379840642020e+07  1.2461740477670184e+06  -2.3625351386466850e+07  8.5436246315297044e+00  -9.7351439670053440e-09  1.8958598289966822e+07  -6.5506531429761797e+06  8.9317886557123135e+05  -4.8931175186013337e+06  2.5061818698626361e+06  -2.4535738983437684e+06  4.4816709316544076e+06  -4.4803477136344584e+06  7.5576395369215123e+06  -4.3544391286342982e+06  8.3339845774696264e+06  -3.5806805549249402e+06  1.0424557982514901e+07  -5.0699547099109655e+06  1.3154246842309348e+07  -5.9762055545492535e+06  1.3496987782849433e+07  -5.5105527144851508e+06  1.4171214607960839e+07  -9.3141833030830976e+06  2.3515203359228518e+07  -1.5756722724309936e+07  3.8580359923615336e+07  -2.2867504805920746e+07  4.5015513568309434e+07  -3.5508149814403892e+07  5.3059977119746909e+07  -4.0666785708301157e+07  6.8287768863585800e+07  7.3031261416163895e+00  0.0000000000000000e+00  9.5456292260250058e+06  -5.7565557221110361e+06  -5.4678484593439857e+06  1.4280312359941311e+06  -2.4535739041918553e+06  3.6813948361452031e+06  -4.7662667309278920e+06  4.4770635248191962e+06  -4.8321407919720691e+06  2.3072999059865968e+06  -5.0379570411654329e+06  2.1620607950323252e+06  -6.8435185320801204e+06  2.0649243740038534e+06  -6.9194525079261549e+06  3.0981142023731256e+05  -5.3179663724785997e+06  -1.1252875821420804e+06  -5.7866239967403524e+06  1.5823698743797275e+06  -1.3866091571676556e+07  3.2930705662996960e+06  -2.0817357490905862e+07  7.8727716192511264e+06  -2.2867533830936104e+07  4.8083582238470865e+06  -2.1925509514614012e+07  -2.9779212741555683e+06  -9.2815005414714199e+06  6.2028850656279531e+00  -1.2476425418171884e-09  1.7633412577386808e+07  -1.0956945574856613e+07  5.0085817047139164e+06  -2.8646759000047655e+06  4.4816709367374200e+06  -4.7662667367159063e+06  5.1800455061828485e+06  -4.5862650509039704e+06  4.8587503603965258e+06  -4.8172620328254541e+06  7.6370045754690841e+06  -6.1459738723515011e+06  9.3546576815368906e+06  -5.9371645379570844e+06  1.0123152566659704e+07  -6.0204099151545279e+06  1.0900383654355662e+07  -7.0905729868156482e+06  1.4148216763102908e+07  -1.1244194416216504e+07  2.3811082031332817e+07  -1.4602091144878021e+07  2.9281284700143456e+07  -2.0817407913151238e+07  3.8580401481094919e+07  -2.3989652014239315e+07  3.5211005375098638e+07  -2.4843117334976088e+07  3.7685938824574232e+07  5.2319081538459420e+00  0.0000000000000000e+00  5.8188463055729279e+06  -8.6088510888724476e+06  -1.7191831340436167e+06  8.7913679955795431e+05  -4.4803477693435084e+06  4.4770635486018024e+06  -4.5862650610753782e+06  4.1621484540963345e+06  -5.0114706053278828e+06  5.5285687070631664e+06  -6.2823884294214267e+06  4.2988397350806817e+06  -5.9586761346007185e+06  3.4851920556054851e+06  -6.5843889736030279e+06  2.9634597149178400e+06  -5.6657669053510763e+06  1.8387530267617814e+06  -7.4095284559405595e+06  3.2739420096833454e+06  -1.3378564102059407e+07  4.5685227076657964e+06  -1.4602185116190935e+07  3.2931461261645351e+06  -1.5756739428281775e+07  1.4169973158339243e+06  -1.2392154218360620e+07  -9.2378099356700014e+06  -1.7048075072915715e+06  4.3796508606220526e+00  6.4878747156275342e-09  1.6231291777859025e+07  -1.1208386079500614e+07  8.9651278022729717e+06  -5.3787662329446105e+06  7.5576395610717172e+06  -4.8321407868387047e+06  4.8587503677051309e+06  -5.0114706103617037e+06  6.2497450435767025e+06  -6.1870109905098509e+06  6.0224007350600958e+06  -5.7291181173154935e+06  8.1003011028906498e+06  -7.2264357585487599e+06  9.6527098238469511e+06  -6.6107158180074804e+06  8.6105938814957682e+06  -6.6930960361558003e+06  1.3536572760953246e+07  -1.0414553159145117e+07  1.9380616128419776e+07  -1.3378724746079022e+07  2.3811213975590218e+07  -1.3866114743473399e+07  2.3515164749079913e+07  -9.8105152810396161e+06  2.1748306208368033e+07  -1.4054988272550497e+07  2.4699279218511261e+07  3.6360174730173065e+00  0.0000000000000000e+00  3.3106685831171651e+06  -9.1959394290104751e+06  -1.4734377624072921e+06  7.5297961647202482e+05  -4.3544392383339684e+06  2.3072999423164646e+06  -4.8172620823504040e+06  5.5285687352918023e+06  -6.1870110073671266e+06  5.2530643922202410e+06  -5.6278239630586831e+06  6.6440968275060048e+06  -7.6725247797626294e+06  5.7676762618651055e+06  -6.1387856312809838e+06  2.8778451023075199e+06  -4.2731113662939463e+06  3.4581955140569150e+06  -9.8380105459165704e+06  5.5161318019696772e+06  -1.0414820305191847e+07  3.2741631158048208e+06  -1.1244231243010849e+07  1.5822951842441836e+06  -9.3141199186957926e+06  -3.6653095241386378e+06  -5.4038350974700339e+06  -1.1501142130550558e+07  -9.7087446805989638e+05  2.9913604676060741e+00  -7.9196399083078995e-09  1.5767351927737525e+07  -1.1696184312737159e+07  1.2816458211366653e+07  -6.7587400859775003e+06  8.3339845884296447e+06  -5.0379570136585822e+06  7.6370046110479431e+06  -6.2823884452534551e+06  6.0224007536466159e+06  -5.6278239693122776e+06  7.4500224321252163e+06  -8.0740644829235831e+06  7.1617922786033778e+06  -5.7426915745815607e+06  6.7687631315393383e+06  -5.3498902342430530e+06  7.8593233800932691e+06  -8.4852515133411027e+06  1.4154650373585766e+07  -9.8384255152830966e+06  1.3536923909881806e+07  -7.4095791507340800e+06  1.4148081033655886e+07  -5.7865063068189574e+06  1.4171195090430539e+07  -5.5931955960088074e+06  1.8227466786754042e+07  -1.1758073824580077e+07  2.0813035098158177e+07  2.4364817968680681e+00  0.0000000000000000e+00  8.4322008096896845e+05  -8.3215243187184995e+06  -1.8283790645894017e+06  -1.3699035035181465e+06  -3.5806807080373946e+06  2.1620608815710726e+06  -6.1459740013461001e+06  4.2988397927989345e+06  -5.7291181737086130e+06  6.6440968637435501e+06  -8.0740645130489394e+06  6.3712121348208450e+06  -5.0117473924866877e+06  5.6383290278162211e+06  -6.7048379036765480e+06  4.8302241348678265e+06  -6.2878961602086425e+06  5.8323513658078751e+06  -8.4858556048513427e+06  3.4587190781602436e+06  -6.6931645804584986e+06  1.8385236227080945e+06  -7.0903750165985599e+06  -1.1253185729801632e+06  -5.5106153095604982e+06  -3.6874126774853589e+06  -4.1601919314975035e+06  -1.0215762433975080e+07  -1.7620774240270688e+06  1.9626316027963442e+00  -8.7759758382326073e-06  1.6576071297170475e+07  -1.1795656691641495e+07  1.4175304520786595e+07  -6.4801345012154868e+06  1.0424558008095965e+07  -6.8435185244521303e+06  9.3546577436153572e+06  -5.9586761363439672e+06  8.1003011591725647e+06  -7.6725248290138459e+06  7.1617923263620883e+06  -5.0117474030137118e+06  6.4123443366405573e+06  -8.4261666637363341e+06  7.2560201475634063e+06  -4.3727477620784575e+06  6.1872749519301048e+06  -6.2887050536093526e+06  7.8600478447530605e+06  -4.2731947295116326e+06  8.6102338747318592e+06  -5.6654524698802410e+06  1.0900338505769435e+07  -5.3180761949619800e+06  1.3497073455295615e+07  -7.5755995231040642e+06  1.7606542828936212e+07  -1.1253818344897002e+07  1.8750326952017251e+07  1.5615088600932925e+00  0.0000000000000000e+00  -1.0032624704465715e+06  -8.7127229898594264e+06  -1.5361725216108125e+06  -2.4593995468684668e+06  -5.0699549661618639e+06  2.0649245351871555e+06  -5.9371647350184005e+06  3.4851921659502760e+06  -7.2264359269042397e+06  5.7676763689313438e+06  -5.7426916562550040e+06  5.6383290703370003e+06  -8.4261667186145894e+06  7.2429922931882199e+06  -2.6437485703078280e+06  8.2824473009040393e+05  -4.3737378905647900e+06  4.8311455290576555e+06  -5.3499858383742357e+06  2.8773266769192293e+06  -6.6102573633272285e+06  2.9634015019407514e+06  -6.0205945411457960e+06  3.0995567918635922e+05  -5.9762158347763354e+06  -2.1502686916808761e+06  -2.8681408658644729e+06  -9.5876818716140743e+06  -1.6641711254504747e+06  1.2252612475314473e+00  3.7488288532471349e-09  1.7474555388753686e+07  -1.1012996795938481e+07  1.5407113211853029e+07  -7.5153304680742212e+06  1.3154246930291986e+07  -6.9194525108477343e+06  1.0123152658788662e+07  -6.5843890178369032e+06  9.6527099641772248e+06  -6.1387857015870884e+06  6.7687632354486389e+06  -6.7048380230106348e+06  7.2560203044290328e+06  -2.6437486361493743e+06  -2.8289588862889464e+05  -2.6448458330918355e+06  7.2570883121298160e+06  -6.7049395667762663e+06  6.7680842209909186e+06  -6.1381704606188955e+06  9.6526423729312439e+06  -6.5846715080045555e+06  1.0123375632964175e+07  -6.9194630436691437e+06  1.3154158408741912e+07  -7.5152770193767669e+06  1.5407118338560497e+07  -1.1013016025063286e+07  1.7474561833990313e+07  9.4648514795348393e-01  0.0000000000000000e+00  -1.6641627077651655e+06  -9.5876843473704159e+06  -2.8681693062495375e+06  -2.1502186238776604e+06  -5.9762059426316824e+06  3.0981165447495942e+05  -6.0204102382757962e+06  2.9634599588620239e+06  -6.6107161341024656e+06  2.8778453106031762e+06  -5.3498905044579394e+06  4.8302243782021562e+06  -4.3727479538294654e+06  8.2824473004803166e+05  -2.6448457672381504e+06  7.2441150018570134e+06  -8.4262708206110895e+06  5.6375277531985054e+06  -5.7419410611192966e+06  5.7676055978900818e+06  -7.2268315113106277e+06  3.4855082849154435e+06  -5.9371736426595338e+06  2.0647814221208892e+06  -5.0698678376923725e+06  -2.4593886862182016e+06  -1.5362122816977045e+06  -8.7127070065282676e+06  -1.0032602792701345e+06  7.1822564827221813e-01  2.3110077286748050e-08  1.8750326681333289e+07  -1.1253833062793244e+07  1.7606569064623699e+07  -7.5755934766177163e+06  1.3496987935361413e+07  -5.3179664081798056e+06  1.0900383862972485e+07  -5.6657670461729262e+06  8.6105941161813885e+06  -4.2731114960291181e+06  7.8593235976834493e+06  -6.2878962719004098e+06  6.1872749518283475e+06  -4.3737376986897094e+06  7.2570881552805295e+06  -8.4262707657279596e+06  6.4114969359123074e+06  -5.0109168981705271e+06  7.1617224143164661e+06  -7.6730223737863442e+06  8.1007083116294090e+06  -5.9586773778926237e+06  9.3544461516526360e+06  -6.8433868428536365e+06  1.0424577685397362e+07  -6.4802017344642673e+06  1.4175332868574383e+07  -1.1795647175516609e+07  1.6576060738439050e+07  5.3397654859477905e-01  0.0000000000000000e+00  -1.7620813097534371e+06  -1.0215750925354740e+07  -4.1601871707472764e+06  -3.6874600174662010e+06  -5.5105532565655317e+06  -1.1252872230379435e+06  -7.0905734906099048e+06  1.8387533562192051e+06  -6.6930963990780152e+06  3.4581956965079387e+06  -8.4852517308878247e+06  5.8323513657472515e+06  -6.2887049417327484e+06  4.8311452855729321e+06  -6.7049394475165242e+06  5.6375277106510308e+06  -5.0109168876529541e+06  6.3711432165603610e+06  -8.0746240189182758e+06  6.6445715455359928e+06  -5.7291098160370383e+06  4.2985577297230251e+06  -6.1457956959827626e+06  2.1620940739761312e+06  -3.5807862825972382e+06  -1.3698580418996338e+06  -1.8283611102513180e+06  -8.3215494499477763e+06  8.4322513954966445e+05  3.8768031660174707e-01  -8.2298557378547960e-09  2.0813039421682931e+07  -1.1758072309260832e+07  1.8227442871497627e+07  -5.5931640078753876e+06  1.4171214811050333e+07  -5.7866240380445570e+06  1.4148216988826241e+07  -7.4095284723927202e+06  1.3536572853533098e+07  -9.8380104717576075e+06  1.4154650373432340e+07  -8.4858553872445468e+06  7.8600476270749532e+06  -5.3499855679609887e+06  6.7680841172354072e+06  -5.7419409793672273e+06  7.1617223665954852e+06  -8.0746239887837358e+06  7.4505221252674842e+06  -5.6278081085237619e+06  6.0220642599785794e+06  -6.2821692665551128e+06  7.6370535537613323e+06  -5.0381044962114608e+06  8.3340490358241824e+06  -6.7587080922366511e+06  1.2816412804821804e+07  -1.1696172167139176e+07  1.5767358816363109e+07  2.7372817878887828e-01  0.0000000000000000e+00  -9.7087168847533909e+05  -1.1501153508537328e+07  -5.4038185779054556e+06  -3.6652985329534840e+06  -9.3141839429508597e+06  1.5823702090529390e+06  -1.1244194857167697e+07  3.2739421314268364e+06  -1.0414553363053892e+07  5.5161318013946209e+06  -9.8384255887689162e+06  3.4587188956910493e+06  -4.2731945998749509e+06  2.8773264683241984e+06  -6.1381703905915162e+06  5.7676054906497113e+06  -7.6730223246299252e+06  6.6445715092554688e+06  -5.6278081022769567e+06  5.2527073085054103e+06  -6.1867684559536967e+06  5.5286311817350285e+06  -4.8174482265899042e+06  2.3073827122839037e+06  -4.3543921690518577e+06  7.5291103711174207e+05  -1.4734204267143083e+06  -9.1959218402226940e+06  3.3106556422452084e+06  1.8696002922537963e-01  0.0000000000000000e+00  2.4699275918823626e+07  -1.4054982444208931e+07  2.1748312019532390e+07  -9.8105492400519066e+06  2.3515203542728070e+07  -1.3866091466758059e+07  2.3811082127337113e+07  -1.3378563911272116e+07  1.9380616128097583e+07  -1.0414820100223983e+07  1.3536923816342430e+07  -6.6931642174621131e+06  8.6102336404133365e+06  -6.6102570467160027e+06  9.6526422330768295e+06  -7.2268313425977258e+06  8.1007082555566821e+06  -5.7291097595299874e+06  6.0220642414370049e+06  -6.1867684390908834e+06  6.2498128415954113e+06  -5.0116795774142295e+06  4.8588461354633169e+06  -4.8320783978800774e+06  7.5575473627552958e+06  -5.3787423199397558e+06  8.9651575275730044e+06  -1.1208411655822461e+07  1.6231294792295141e+07  1.2266480153362076e-01  0.0000000000000000e+00  -1.7048031690580754e+06  -9.2378078145810924e+06  -1.2392168797881704e+07  1.4170155248898217e+06  -1.5756723415835941e+07  3.2930707715456956e+06  -1.4602091518430922e+07  4.5685227065959219e+06  -1.3378724936411493e+07  3.2741629936249172e+06  -7.4095791332459105e+06  1.8385232929734723e+06  -5.6654523298252346e+06  2.9634012570543890e+06  -6.5846714645965872e+06  3.4855081739071766e+06  -5.9586773765970133e+06  4.2985576717497986e+06  -6.2821692508560838e+06  5.5286311534602903e+06  -5.0116795723857908e+06  4.1622489586212630e+06  -4.5861935867870990e+06  4.4769537366118096e+06  -4.4803198614829956e+06  8.7917973977601540e+05  -1.7192236226525465e+06  -8.6088462228866816e+06  5.8188553483442524e+06  7.6578827970715510e-02  2.2058050483544975e-08  3.7685940341393568e+07  -2.4843124668981470e+07  3.5211012959400281e+07  -2.3989643368411176e+07  3.8580360128249489e+07  -2.0817357195289604e+07  2.9281284697766103e+07  -1.4602184738119207e+07  2.3811213878423344e+07  -1.1244230802518424e+07  1.4148080806986760e+07  -7.0903745120146507e+06  1.0900338298596753e+07  -6.0205942163359970e+06  1.0123375542345038e+07  -5.9371734443995608e+06  9.3544460904588103e+06  -6.1457955664263535e+06  7.6370535184953511e+06  -4.8174481769130789e+06  4.8588461282030959e+06  -4.5861935766112097e+06  5.1799290736661544e+06  -4.7662362399079045e+06  4.4817237933847494e+06  -2.8647276504513356e+06  5.0085863069296405e+06  -1.0956924728006879e+07  1.7633401570359368e+07  4.4889103017013592e-02  0.0000000000000000e+00  -9.2814995649783313e+06  -2.9779194265689342e+06  -2.1925502343777958e+07  4.8083361576294815e+06  -2.2867505540976230e+07  7.8727716204911508e+06  -2.0817408209438797e+07  3.2931459155623559e+06  -1.3866114845354050e+07  1.5822948510991265e+06  -5.7865062650682982e+06  -1.1253189339583127e+06  -5.3180761621401180e+06  3.0995544182663853e+05  -6.9194630436178828e+06  2.0647812586285970e+06  -6.8433868522216892e+06  2.1620939862549827e+06  -5.0381045244391505e+06  2.3073826755667594e+06  -4.8320784031902263e+06  4.4769537127766134e+06  -4.7662362341247555e+06  3.6814515005460912e+06  -2.4536327765283254e+06  1.4280357044565210e+06  -5.4678191451360350e+06  -5.7565748287611576e+06  9.5456280716474541e+06  2.4230019787609167e-02  0.0000000000000000e+00  6.8287769503515676e+07  -4.0666783418929234e+07  5.3059966039967880e+07  -3.5508137091986917e+07  4.5015513555015020e+07  -2.2867533075936325e+07  3.8580401283383347e+07  -1.5756738735581879e+07  2.3515164558658514e+07  -9.3141192814294156e+06  1.4171194888373200e+07  -5.5106147629801128e+06  1.3497073308759689e+07  -5.9762154404841894e+06  1.3154158326377954e+07  -5.0698675768134259e+06  1.0424577663340092e+07  -3.5807861270010127e+06  8.3340490264764661e+06  -4.3543920584070124e+06  7.5575473390934756e+06  -4.4803198055633502e+06  4.4817237883608406e+06  -2.4536327706744410e+06  2.5061861528315004e+06  -4.8930824626787631e+06  8.9315355067731498e+05  -6.5506547272901051e+06  1.8958607552437536e+07  1.1685001826586211e-02  0.0000000000000000e+00  -2.3625346392417111e+07  1.2461684756189161e+06  -3.6811371291604616e+07  1.3752034699600667e+07  -3.5508150487791114e+07  4.8083578222967889e+06