<?xml version="1.0"?>
<VTKFile type="UnstructuredGrid"  version="0.1"  >
<UnstructuredGrid>
<Piece  NumberOfPoints="961" NumberOfCells="1800">
<Points>
<DataArray  type="Float64"  NumberOfComponents="3"  format="ascii">-1 -1 0  -0.9333333333333333 -1 0  -0.8666666666666667 -1 0  -0.8 -1 0  -0.7333333333333334 -1 0  -0.6666666666666667 -1 0  -0.6 -1 0  -0.5333333333333333 -1 0  -0.4666666666666667 -1 0  -0.4 -1 0  -0.3333333333333334 -1 0  -0.2666666666666667 -1 0  -0.2 -1 0  -0.1333333333333333 -1 0  -0.06666666666666665 -1 0  0 -1 0  0.06666666666666665 -1 0  0.1333333333333333 -1 0  0.2 -1 0  0.2666666666666666 -1 0  0.3333333333333333 -1 0  0.3999999999999999 -1 0  0.4666666666666666 -1 0  0.5333333333333334 -1 0  0.6000000000000001 -1 0  0.6666666666666667 -1 0  0.7333333333333334 -1 0  0.8 -1 0  0.8666666666666667 -1 0  0.9333333333333333 -1 0  1 -1 0  -1 -0.9333333333333333 0  -0.9333333333333333 -0.9333333333333333 0  -0.8666666666666667 -0.9333333333333333 0  -0.8 -0.9333333333333333 0  -0.7333333333333334 -0.9333333333333333 0  -0.6666666666666667 -0.9333333333333333 0  -0.6 -0.9333333333333333 0  -0.5333333333333333 -0.9333333333333333 0  -0.4666666666666667 -0.9333333333333333 0  -0.4 -0.9333333333333333 0  -0.3333333333333334 -0.9333333333333333 0  -0.2666666666666667 -0.9333333333333333 0  -0.2 -0.9333333333333333 0  -0.1333333333333333 -0.9333333333333333 0  -0.06666666666666665 -0.9333333333333333 0  0 -0.9333333333333333 0  0.06666666666666665 -0.9333333333333333 0  0.1333333333333333 -0.9333333333333333 0  0.2 -0.9333333333333333 0  0.2666666666666666 -0.9333333333333333 0  0.3333333333333333 -0.9333333333333333 0  0.3999999999999999 -0.9333333333333333 0  0.4666666666666666 -0.9333333333333333 0  0.5333333333333334 -0.9333333333333333 0  0.6000000000000001 -0.9333333333333333 0  0.6666666666666667 -0.9333333333333333 0  0.7333333333333334 -0.9333333333333333 0  0.8 -0.9333333333333333 0  0.8666666666666667 -0.9333333333333333 0  0.9333333333333333 -0.9333333333333333 0  1 -0.9333333333333333 0  -1 -0.8666666666666667 0  -0.9333333333333333 -0.8666666666666667 0  -0.8666666666666667 -0.8666666666666667 0  -0.8 -0.8666666666666667 0  -0.7333333333333334 -0.8666666666666667 0  -0.6666666666666667 -0.8666666666666667 0  -0.6 -0.8666666666666667 0  -0.5333333333333333 -0.8666666666666667 0  -0.4666666666666667 -0.8666666666666667 0  -0.4 -0.8666666666666667 0  -0.3333333333333334 -0.8666666666666667 0  -0.2666666666666667 -0.8666666666666667 0  -0.2 -0.8666666666666667 0  -0.1333333333333333 -0.8666666666666667 0  -0.06666666666666665 -0.8666666666666667 0  0 -0.8666666666666667 0  0.06666666666666665 -0.8666666666666667 0  0.1333333333333333 -0.8666666666666667 0  0.2 -0.8666666666666667 0  0.2666666666666666 -0.8666666666666667 0  0.3333333333333333 -0.8666666666666667 0  0.3999999999999999 -0.8666666666666667 0  0.4666666666666666 -0.8666666666666667 0  0.5333333333333334 -0.8666666666666667 0  0.6000000000000001 -0.8666666666666667 0  0.6666666666666667 -0.8666666666666667 0  0.7333333333333334 -0.8666666666666667 0  0.8 -0.8666666666666667 0  0.8666666666666667 -0.8666666666666667 0  0.9333333333333333 -0.8666666666666667 0  1 -0.8666666666666667 0  -1 -0.8 0  -0.9333333333333333 -0.8 0  -0.8666666666666667 -0.8 0  -0.8 -0.8 0  -0.7333333333333334 -0.8 0  -0.6666666666666667 -0.8 0  -0.6 -0.8 0  -0.5333333333333333 -0.8 0  -0.4666666666666667 -0.8 0  -0.4 -0.8 0  -0.3333333333333334 -0.8 0  -0.2666666666666667 -0.8 0  -0.2 -0.8 0  -0.1333333333333333 -0.8 0  -0.06666666666666665 -0.8 0  0 -0.8 0  0.06666666666666665 -0.8 0  0.1333333333333333 -0.8 0  0.2 -0.8 0  0.2666666666666666 -0.8 0  0.3333333333333333 -0.8 0  0.3999999999999999 -0.8 0  0.4666666666666666 -0.8 0  0.5333333333333334 -0.8 0  0.6000000000000001 -0.8 0  0.6666666666666667 -0.8 0  0.7333333333333334 -0.8 0  0.8 -0.8 0  0.8666666666666667 -0.8 0  0.9333333333333333 -0.8 0  1 -0.8 0  -1 -0.7333333333333334 0  -0.9333333333333333 -0.7333333333333334 0  -0.8666666666666667 -0.7333333333333334 0  -0.8 -0.7333333333333334 0  -0.7333333333333334 -0.7333333333333334 0  -0.6666666666666667 -0.7333333333333334 0  -0.6 -0.7333333333333334 0  -0.5333333333333333 -0.7333333333333334 0  -0.4666666666666667 -0.7333333333333334 0  -0.4 -0.7333333333333334 0  -0.3333333333333334 -0.7333333333333334 0  -0.2666666666666667 -0.7333333333333334 0  -0.2 -0.7333333333333334 0  -0.1333333333333333 -0.7333333333333334 0  -0.06666666666666665 -0.7333333333333334 0  0 -0.7333333333333334 0  0.06666666666666665 -0.7333333333333334 0  0.1333333333333333 -0.7333333333333334 0  0.2 -0.7333333333333334 0  0.2666666666666666 -0.7333333333333334 0  0.3333333333333333 -0.7333333333333334 0  0.3999999999999999 -0.7333333333333334 0  0.4666666666666666 -0.7333333333333334 0  0.5333333333333334 -0.7333333333333334 0  0.6000000000000001 -0.7333333333333334 0  0.6666666666666667 -0.7333333333333334 0  0.7333333333333334 -0.7333333333333334 0  0.8 -0.7333333333333334 0  0.8666666666666667 -0.7333333333333334 0  0.9333333333333333 -0.7333333333333334 0  1 -0.7333333333333334 0  -1 -0.6666666666666667 0  -0.9333333333333333 -0.6666666666666667 0  -0.8666666666666667 -0.6666666666666667 0  -0.8 -0.6666666666666667 0  -0.7333333333333334 -0.6666666666666667 0  -0.6666666666666667 -0.6666666666666667 0  -0.6 -0.6666666666666667 0  -0.5333333333333333 -0.6666666666666667 0  -0.4666666666666667 -0.6666666666666667 0  -0.4 -0.6666666666666667 0  -0.3333333333333334 -0.6666666666666667 0  -0.2666666666666667 -0.6666666666666667 0  -0.2 -0.6666666666666667 0  -0.1333333333333333 -0.6666666666666667 0  -0.06666666666666665 -0.6666666666666667 0  0 -0.6666666666666667 0  0.06666666666666665 -0.6666666666666667 0  0.1333333333333333 -0.6666666666666667 0  0.2 -0.6666666666666667 0  0.2666666666666666 -0.6666666666666667 0  0.3333333333333333 -0.6666666666666667 0  0.3999999999999999 -0.6666666666666667 0  0.4666666666666666 -0.6666666666666667 0  0.5333333333333334 -0.6666666666666667 0  0.6000000000000001 -0.6666666666666667 0  0.6666666666666667 -0.6666666666666667 0  0.7333333333333334 -0.6666666666666667 0  0.8 -0.6666666666666667 0  0.8666666666666667 -0.6666666666666667 0  0.9333333333333333 -0.6666666666666667 0  1 -0.6666666666666667 0  -1 -0.6 0  -0.9333333333333333 -0.6 0  -0.8666666666666667 -0.6 0  -0.8 -0.6 0  -0.7333333333333334 -0.6 0  -0.6666666666666667 -0.6 0  -0.6 -0.6 0  -0.5333333333333333 -0.6 0  -0.4666666666666667 -0.6 0  -0.4 -0.6 0  -0.3333333333333334 -0.6 0  -0.2666666666666667 -0.6 0  -0.2 -0.6 0  -0.1333333333333333 -0.6 0  -0.06666666666666665 -0.6 0  0 -0.6 0  0.06666666666666665 -0.6 0  0.1333333333333333 -0.6 0  0.2 -0.6 0  0.2666666666666666 -0.6 0  0.3333333333333333 -0.6 0  0.3999999999999999 -0.6 0  0.4666666666666666 -0.6 0  0.5333333333333334 -0.6 0  0.6000000000000001 -0.6 0  0.6666666666666667 -0.6 0  0.7333333333333334 -0.6 0  0.8 -0.6 0  0.8666666666666667 -0.6 0  0.9333333333333333 -0.6 0  1 -0.6 0  -1 -0.5333333333333333 0  -0.9333333333333333 -0.5333333333333333 0  -0.8666666666666667 -0.5333333333333333 0  -0.8 -0.5333333333333333 0  -0.7333333333333334 -0.5333333333333333 0  -0.6666666666666667 -0.5333333333333333 0  -0.6 -0.5333333333333333 0  -0.5333333333333333 -0.5333333333333333 0  -0.4666666666666667 -0.5333333333333333 0  -0.4 -0.5333333333333333 0  -0.3333333333333334 -0.5333333333333333 0  -0.2666666666666667 -0.5333333333333333 0  -0.2 -0.5333333333333333 0  -0.1333333333333333 -0.5333333333333333 0  -0.06666666666666665 -0.5333333333333333 0  0 -0.5333333333333333 0  0.06666666666666665 -0.5333333333333333 0  0.1333333333333333 -0.5333333333333333 0  0.2 -0.5333333333333333 0  0.2666666666666666 -0.5333333333333333 0  0.3333333333333333 -0.5333333333333333 0  0.3999999999999999 -0.5333333333333333 0  0.4666666666666666 -0.5333333333333333 0  0.5333333333333334 -0.5333333333333333 0  0.6000000000000001 -0.5333333333333333 0  0.6666666666666667 -0.5333333333333333 0  0.7333333333333334 -0.5333333333333333 0  0.8 -0.5333333333333333 0  0.8666666666666667 -0.5333333333333333 0  0.9333333333333333 -0.5333333333333333 0  1 -0.5333333333333333 0  -1 -0.4666666666666667 0  -0.9333333333333333 -0.4666666666666667 0  -0.8666666666666667 -0.4666666666666667 0  -0.8 -0.4666666666666667 0  -0.7333333333333334 -0.4666666666666667 0  -0.6666666666666667 -0.4666666666666667 0  -0.6 -0.4666666666666667 0  -0.5333333333333333 -0.4666666666666667 0  -0.4666666666666667 -0.4666666666666667 0  -0.4 -0.4666666666666667 0  -0.3333333333333334 -0.4666666666666667 0  -0.2666666666666667 -0.4666666666666667 0  -0.2 -0.4666666666666667 0  -0.1333333333333333 -0.4666666666666667 0  -0.06666666666666665 -0.4666666666666667 0  0 -0.4666666666666667 0  0.06666666666666665 -0.4666666666666667 0  0.1333333333333333 -0.4666666666666667 0  0.2 -0.4666666666666667 0  0.2666666666666666 -0.4666666666666667 0  0.3333333333333333 -0.4666666666666667 0  0.3999999999999999 -0.4666666666666667 0  0.4666666666666666 -0.4666666666666667 0  0.5333333333333334 -0.4666666666666667 0  0.6000000000000001 -0.4666666666666667 0  0.6666666666666667 -0.4666666666666667 0  0.7333333333333334 -0.4666666666666667 0  0.8 -0.4666666666666667 0  0.8666666666666667 -0.4666666666666667 0  0.9333333333333333 -0.4666666666666667 0  1 -0.4666666666666667 0  -1 -0.4 0  -0.9333333333333333 -0.4 0  -0.8666666666666667 -0.4 0  -0.8 -0.4 0  -0.7333333333333334 -0.4 0  -0.6666666666666667 -0.4 0  -0.6 -0.4 0  -0.5333333333333333 -0.4 0  -0.4666666666666667 -0.4 0  -0.4 -0.4 0  -0.3333333333333334 -0.4 0  -0.2666666666666667 -0.4 0  -0.2 -0.4 0  -0.1333333333333333 -0.4 0  -0.06666666666666665 -0.4 0  0 -0.4 0  0.06666666666666665 -0.4 0  0.1333333333333333 -0.4 0  0.2 -0.4 0  0.2666666666666666 -0.4 0  0.3333333333333333 -0.4 0  0.3999999999999999 -0.4 0  0.4666666666666666 -0.4 0  0.5333333333333334 -0.4 0  0.6000000000000001 -0.4 0  0.6666666666666667 -0.4 0  0.7333333333333334 -0.4 0 
[...]
<PointData  Scalars="f_24"> 
<DataArray  type="Float64"  Name="f_24"  format="ascii">0.0000000000000000e+00  0.0000000000000000e+00  0.0000000000000000e+00  0.0000000000000000e+00  0.0000000000000000e+00  0.0000000000000000e+00  0.0000000000000000e+00  0.0000000000000000e+00  0.0000000000000000e+00  0.0000000000000000e+00  0.0000000000000000e+00  0.0000000000000000e+00  0.0000000000000000e+00  0.0000000000000000e+00  0.0000000000000000e+00  0.0000000000000000e+00  0.0000000000000000e+00  0.0000000000000000e+00  0.0000000000000000e+00  0.0000000000000000e+00  0.0000000000000000e+00  0.0000000000000000e+00  0.0000000000000000e+00  0.0000000000000000e+00  0.0000000000000000e+00  -1.6833562372899572e-07  0.0000000000000000e+00  -4.1607435865564551e-07  0.0000000000000000e+00  0.0000000000000000e+00  1.4696196550423318e+01  0.0000000000000000e+00  1.3074661352925103e+07  1.4017989998008553e+07  2.0437872544529255e+07  1.4272615071034076e+07  1.9793824570237577e+07  1.0643806122080574e+07  1.8558948054368727e+07  7.0123358765416890e+06  1.7165487789802954e+07  4.5234440904651163e+06  1.6665605211695574e+07  2.0773789815218919e+06  1.7415908099839728e+07  2.5924510193409256e+05  1.8278163782732561e+07  -3.7411181478564418e+05  1.9533906602662187e+07  -4.3018191804887675e+05  2.1576425159057703e+07  3.9215649386270129e+05  2.5397464242641322e+07  -2.8938736309675849e+05  3.8031544833047546e+07  -7.6962755967284031e+06  6.7676848982576847e+07  -2.1828379933501940e+07  1.1333874546483499e+08  -1.3379510632864490e+07  2.4806979212339729e+08  1.2832519249851796e+01  0.0000000000000000e+00  1.4017989974019790e+07  1.5029989754703216e+07  5.1570464715209156e+06  1.4922893051764646e+06  -5.6833109606178738e+06  -5.1866818506270666e+06  -1.0522441321173238e+07  -8.4514455947496723e+06  -1.1169466796230713e+07  -9.3446074622138534e+06  -1.1886115846287990e+07  -8.6765026533745099e+06  -1.2107641822705580e+07  -9.1421430706656482e+06  -1.1387479885931188e+07  -1.0004274383164488e+07  -1.1589440009497924e+07  -1.0547328256873026e+07  -1.1959450771426050e+07  -1.1614986923124550e+07  -1.3942397188672770e+07  -9.0672053917065337e+06  -2.4001765363061409e+07  -2.4658325962637905e+06  -3.8809901561699972e+07  2.1773297446960546e+06  -3.3715325409072801e+07  -2.1027021552497163e+07  -1.3379519882833568e+07  1.1151981959375103e+01  7.9348173965749901e-09  2.0437872533042043e+07  5.1570464751396542e+06  9.8619403435067821e+05  -6.2562787122152131e+06  8.4345661703347601e+05  -5.6330334903703202e+06  4.4582409939147644e+06  -2.1638712384432792e+06  8.2856966736783767e+06  -1.8651899964871556e+06  1.2136121162622612e+07  -2.1028682839135434e+06  1.3555542639089582e+07  -1.7447508588886994e+06  1.4795986374981448e+07  -3.0264155535896625e+06  1.6908949671080649e+07  -4.3360015709203705e+06  1.7424082852459867e+07  -5.6523671421887120e+06  2.0737071584115341e+07  -1.2524149213366047e+07  3.3837826417433970e+07  -2.1604707578572407e+07  5.1597103187415995e+07  -3.5395198947855055e+07  6.1279031839923464e+07  -3.3715324772596292e+07  1.1333874726312746e+08  9.6421745561559113e+00  0.0000000000000000e+00  1.4272614996931154e+07  1.4922893269799789e+06  -6.2562787191538187e+06  1.2807519280067315e+05  -5.2080115264308024e+06  9.1621999571977078e+05  -3.2137322449846505e+06  5.5215328937653860e+05  -5.4557241765765203e+06  5.9923892435801250e+05  -6.6706172002441771e+06  -1.3914983005419264e+06  -6.3525065365087697e+06  -2.4378674634213601e+06  -7.3515610822097193e+06  -2.1511831239886712e+06  -7.4223560873693470e+06  -3.6787572698779753e+06  -5.5382574371026196e+06  -3.7275801426543551e+06  -9.7507520351166669e+06  1.0578395547140923e+06  -2.3738671157738239e+07  4.1652389371283348e+06  -3.4957878490870260e+07  1.3191482859814072e+07  -3.5395208679980099e+07  2.1773363140059276e+06  -2.1828387676350445e+07  8.2911223639830212e+00  -1.0054549213190717e-08  1.9793824547369987e+07  -5.6833109184904797e+06  8.4345662437792204e+05  -5.2080115304973507e+06  2.0013787944809333e+06  -2.7097217502095737e+06  4.2222877576451022e+06  -4.4177306667142408e+06  7.3878003527888097e+06  -4.2094241705778530e+06  8.1789339124071524e+06  -3.4489727085289480e+06  1.0213672106649343e+07  -4.8981299755446995e+06  1.2869398465287697e+07  -5.7734224122624109e+06  1.3207876465571417e+07  -5.3157457292606235e+06  1.3863719722187497e+07  -9.0355618691856563e+06  2.2909140697928961e+07  -1.5385126715947531e+07  3.7407906241304658e+07  -2.2531524340930756e+07  4.3361652297695749e+07  -3.4957890248113178e+07  5.1597114261802532e+07  -3.8809902759698324e+07  6.7676848370684028e+07  7.0872861450729747e+00  0.0000000000000000e+00  1.0643806014706708e+07  -5.1866817870509243e+06  -5.6330335501140943e+06  9.1622000927693071e+05  -2.7097217556995633e+06  3.4687280942222145e+06  -4.6686445325877471e+06  4.3820701275770804e+06  -4.7007383151900051e+06  2.2516039933528220e+06  -4.9235323676232994e+06  2.0861394522701534e+06  -6.6889259219254544e+06  1.9757978121039404e+06  -6.7614583970525712e+06  2.5745018932137149e+05  -5.2006424105128869e+06  -1.1379413196383873e+06  -5.6398349477561722e+06  1.5217314004053269e+06  -1.3468538974441605e+07  3.1800267238419731e+06  -2.0279539519610718e+07  7.4837733886302467e+06  -2.2531552509414669e+07  4.1652607027410469e+06  -2.1604715868293196e+07  -2.4658335354663874e+06  -7.6962782299891263e+06  6.0195621070533925e+00  1.2476425418171884e-08  1.8558948040806483e+07  -1.0522441258076672e+07  4.4582409881332628e+06  -3.2137322207158804e+06  4.2222877628425062e+06  -4.6686445383954346e+06  5.0787300359007819e+06  -4.4570733095114250e+06  4.7510370649650265e+06  -4.6936060460385587e+06  7.4553130687194243e+06  -5.9795451704924693e+06  9.1330465515484400e+06  -5.7662976454298617e+06  9.8857693555937745e+06  -5.8436788408859475e+06  1.0646442527647601e+07  -6.8916129334349046e+06  1.3795709784967186e+07  -1.0951193276626416e+07  2.3201579881704211e+07  -1.4181993595400855e+07  2.8548491011892252e+07  -2.0279588450881578e+07  3.7407946570600502e+07  -2.3738679277630016e+07  3.3837819237136535e+07  -2.4001757590997882e+07  3.8031543582963549e+07  5.0772818998358158e+00  0.0000000000000000e+00  7.0123357355535999e+06  -8.4514455042430125e+06  -2.1638713366677603e+06  5.5215332517625950e+05  -4.4177307206045790e+06  4.3820701505545797e+06  -4.4570733192332629e+06  4.0609476839884110e+06  -4.8925357233835086e+06  5.3828366899269894e+06  -6.1299905144271217e+06  4.1766826239734599e+06  -5.8132836040811501e+06  3.3732831799594467e+06  -6.4233284393320819e+06  2.8578399298598114e+06  -5.5279449686837448e+06  1.7642936553842104e+06  -7.2063338577648159e+06  3.1652599462870988e+06  -1.3023745131700218e+07  4.4015249421451008e+06  -1.4182084790185470e+07  3.1801000508134016e+06  -1.5385142927520020e+07  1.0578222935475572e+06  -1.2524136057293989e+07  -9.0672068704162836e+06  -2.8939270892332657e+05  4.2502126161925506e+00  -1.0813124526045891e-08  1.7165487788280722e+07  -1.1169466703640528e+07  8.2856966531180488e+06  -5.4557241421481194e+06  7.3878003766367920e+06  -4.7007383104505818e+06  4.7510370722372439e+06  -4.8925357284574108e+06  6.0952345797259137e+06  -6.0288753104791697e+06  5.8747181916920794e+06  -5.5738195464995764e+06  7.8994422593088914e+06  -7.0262170641234480e+06  9.4165981226958446e+06  -6.4239459164877040e+06  8.4046771533724461e+06  -6.5132477012403198e+06  1.3186556113661211e+07  -1.0137121715612853e+07  1.8894967113189660e+07  -1.3023901027505936e+07  2.3201707926521290e+07  -1.3468561460964901e+07  2.2909103229131047e+07  -9.7507189011956099e+06  2.0737066079479218e+07  -1.3942402505020402e+07  2.5397467750035618e+07  3.5285566676287599e+00  0.0000000000000000e+00  4.5234439224383095e+06  -9.3446073533067405e+06  -1.8651901567960158e+06  5.9923901527968852e+05  -4.2094242769249026e+06  2.2516040284448145e+06  -4.6936060940040452e+06  5.3828367172557339e+06  -6.0288753267042935e+06  5.1161012852676641e+06  -5.4830887646569265e+06  6.4634646520834072e+06  -7.4763073621676248e+06  5.6041019206958022e+06  -5.9854560948068807e+06  2.7831836403429979e+06  -4.1656691069924110e+06  3.3558123817739538e+06  -9.5686654344308339e+06  5.3437401735630389e+06  -1.0137380966675218e+07  3.1654745178705831e+06  -1.0951229015776610e+07  1.5216589180718174e+06  -9.0355003591014501e+06  -3.7275903874459788e+06  -5.6523839748065192e+06  -1.1614975389219789e+07  3.9215297763455904e+05  2.9029524050218916e+00  3.9598199541539497e-09  1.6665605227037963e+07  -1.1886115746386357e+07  1.2136121163981944e+07  -6.6706171554973433e+06  8.1789339235163676e+06  -4.9235323412077734e+06  7.4553131035771798e+06  -6.1299905300360341e+06  5.8747182098883810e+06  -5.4830887709132042e+06  7.2580690608983580e+06  -7.8604111263009692e+06  6.9796138437133422e+06  -5.5852856877577985e+06  6.6005454547721911e+06  -5.1980656274555381e+06  7.6614425900088372e+06  -8.2654945341744069e+06  1.3789575533564152e+07  -9.5690681394559070e+06  1.3186896884723149e+07  -7.2063830542773185e+06  1.3795578067408584e+07  -5.6397207361829821e+06  1.3863700782100294e+07  -5.5382880393440621e+06  1.7424106229692936e+07  -1.1959452080933854e+07  2.1576421208029434e+07  2.3644728773428603e+00  0.0000000000000000e+00  2.0773787649156386e+06  -8.6765025013878811e+06  -2.1028685145620550e+06  -1.3914981837086137e+06  -3.4489728570532021e+06  2.0861395361204140e+06  -5.9795452956738286e+06  4.1766826798887937e+06  -5.5738196011437764e+06  6.4634646872113571e+06  -7.8604111554075917e+06  6.1997477410783982e+06  -4.8803701067118915e+06  5.4818415539448811e+06  -6.5324000810699379e+06  4.6893382475595586e+06  -6.1216312395175919e+06  5.6762321505937139e+06  -8.2660807723822389e+06  3.3563204724382851e+06  -6.5133142202418027e+06  1.7640710315698879e+06  -6.8914208147867881e+06  -1.1379713942918084e+06  -5.3158064750289731e+06  -3.6787109501449526e+06  -4.3360068075798815e+06  -1.0547339066209551e+07  -4.3017869709429384e+05  1.9046270729348618e+00  -2.7781291900363537e-06  1.7415908152918018e+07  -1.2107641719271719e+07  1.3555542644390788e+07  -6.3525064577154210e+06  1.0213672132039977e+07  -6.6889259148577955e+06  9.1330466122056358e+06  -5.8132836060233824e+06  7.8994423142251605e+06  -7.4763074102316508e+06  6.9796138902307209e+06  -4.8803701171360966e+06  6.2464965213939715e+06  -8.2017010103646312e+06  7.0717104817506224e+06  -4.2495031078667138e+06  6.0245919735578485e+06  -6.1224162267505992e+06  7.6621456439155675e+06  -4.1657500067831990e+06  8.4043277869705297e+06  -5.5276398265872831e+06  1.0646398714027330e+07  -5.2007489875255777e+06  1.3207959606682062e+07  -7.4223619243758488e+06  1.6908924310694758e+07  -1.1589425579844076e+07  1.9533907008982249e+07  1.5153592988739579e+00  0.0000000000000000e+00  2.5924481364422219e+05  -9.1421428865221925e+06  -1.7447511466093862e+06  -2.4378673047570796e+06  -4.8981302243071068e+06  1.9757979684410419e+06  -5.7662978367372034e+06  3.3732832869788534e+06  -7.0262172275667368e+06  5.6041020245917365e+06  -5.5852857669651145e+06  5.4818415952052642e+06  -8.2017010635023098e+06  7.0460025861415407e+06  -2.5749607056001141e+06  7.9445813293112430e+05  -4.2504639737005886e+06  4.6902324106565649e+06  -5.1981584062805064e+06  2.7826805368680190e+06  -6.4235010114795584e+06  2.8577834374592584e+06  -5.8438580106383078e+06  2.5759018478458535e+05  -5.7734323889722610e+06  -2.1512314487782018e+06  -3.0263883663185914e+06  -1.0004271747743269e+07  -3.7412036393787357e+05  1.1890493050969662e+00  0.0000000000000000e+00  1.8278163873519111e+07  -1.1387479750590306e+07  1.4795986395448737e+07  -7.3515610156190693e+06  1.2869398551314268e+07  -6.7614584001963604e+06  9.8857694454760905e+06  -6.4233284825795591e+06  9.4165982593380790e+06  -5.9854561633623131e+06  6.6005455559559846e+06  -6.5324001972739100e+06  7.0717106342879599e+06  -2.5749607698434624e+06  -2.6669709125005058e+05  -2.5760255397187243e+06  7.0727470775894346e+06  -6.5324987399675539e+06  6.5998866094067115e+06  -5.9848591055125436e+06  9.4165326657159291e+06  -6.4236026238976149e+06  9.8859858297619559e+06  -6.7614686217262391e+06  1.2869312645970080e+07  -7.3515091465696311e+06  1.4795991370635239e+07  -1.1387498411407134e+07  1.8278170128266700e+07  9.1851228440145738e-01  0.0000000000000000e+00  -3.7411219503217284e+05  -1.0004274150330465e+07  -3.0264159661626546e+06  -2.1511828607028374e+06  -5.7734227891842183e+06  2.5745041664208262e+05  -5.8436791547409892e+06  2.8578401667162194e+06  -6.4239462235299889e+06  2.7831838426102656e+06  -5.1980658899080064e+06  4.6893384839214133e+06  -4.2495032940160790e+06  7.9445813288731675e+05  -2.5760254754581410e+06  7.0470921137550613e+06  -8.2018020888183042e+06  5.4810639605673952e+06  -5.5845573552668002e+06  5.6040333451524470e+06  -7.0266011206859453e+06  3.3735900632166932e+06  -5.7663064811240081e+06  1.9756590850124676e+06  -4.8980456708741980e+06  -2.4378567650886192e+06  -1.7447897316079375e+06  -9.1421273755690344e+06  2.5924694006057340e+05  6.9699887244575587e-01  -7.7033590955826834e-09  1.9533906746301990e+07  -1.1589439862761684e+07  1.6908949771003045e+07  -7.4223560565891499e+06  1.3207876614246348e+07  -5.2006424454370281e+06  1.0646442730731154e+07  -5.5279451057432061e+06  8.4046773816727269e+06  -4.1656692332240134e+06  7.6614428015840892e+06  -6.1216313481544973e+06  6.0245919734620061e+06  -4.2504637874297863e+06  7.0727469250694346e+06  -8.2018020356795583e+06  6.2456741651420640e+06  -4.8795641574219009e+06  6.9795460443985853e+06  -7.4767902503339527e+06  7.8998374335072478e+06  -5.8132848108795760e+06  9.1328412737305574e+06  -6.6887981250390792e+06  1.0213691227788467e+07  -6.3525717039216422e+06  1.3555570154374471e+07  -1.2107632484391196e+07  1.7415897906243954e+07  5.1819514082422202e-01  0.0000000000000000e+00  -4.3018246797931258e+05  -1.0547327897721549e+07  -4.3360021875307858e+06  -3.6787568910163082e+06  -5.3157462559810570e+06  -1.1379409708840861e+06  -6.8916134230028875e+06  1.7642939754263673e+06  -6.5132480539257908e+06  3.3558125590504445e+06  -8.2654947455896754e+06  5.6762321505362177e+06  -6.1224161179360747e+06  4.6902321741463924e+06  -6.5324986238358915e+06  5.4810639192812433e+06  -4.8795641470037205e+06  6.1996808596602920e+06  -7.8609541253771419e+06  6.4639253400356006e+06  -5.5738114904793482e+06  4.1764089530371046e+06  -5.9793722600322021e+06  2.0861717475402628e+06  -3.4490753114152690e+06  -1.3914540656848336e+06  -2.1028510908559510e+06  -8.6765268898755126e+06  2.0773836739913751e+06  3.7622263169083703e-01  -8.2298557378547960e-09  2.1576425403776072e+07  -1.1959450610400181e+07  1.7424083021242920e+07  -5.5382573847818235e+06  1.3863719919890709e+07  -5.6398349879277283e+06  1.3795710004499631e+07  -7.2063338737034313e+06  1.3186556203664312e+07  -9.5686653623288497e+06  1.3789575533416376e+07  -8.2660805609084265e+06  7.6621454322611559e+06  -5.1981581436373526e+06  6.5998865083753224e+06  -5.5845572759834649e+06  6.9795459979176316e+06  -7.8609540962641612e+06  7.2585539858757509e+06  -5.4830733788839858e+06  5.8743916611115579e+06  -6.1297778290485274e+06  7.4553605998144653e+06  -4.9236754649926452e+06  8.1789964662020504e+06  -6.6705861073147859e+06  1.2136077099404246e+07  -1.1886103959745081e+07  1.6665611912072577e+07  2.6563828851203442e-01  0.0000000000000000e+00  3.9215567507006880e+05  -1.1614986430935763e+07  -5.6523679434699165e+06  -3.7275797211002298e+06  -9.0355624911520835e+06  1.5217317255549075e+06  -1.0951193705297772e+07  3.1652600645680455e+06  -1.0137121913872106e+07  5.3437401730050789e+06  -9.5690682109140642e+06  3.3563202951399148e+06  -4.1657498806490060e+06  2.7826803343113875e+06  -5.9848590372265205e+06  5.6040332410848532e+06  -7.4767902023605807e+06  6.4639253048658911e+06  -5.4830733726319186e+06  5.1157547549712854e+06  -6.0286399437684678e+06  5.3828973181275940e+06  -4.6937867368504088e+06  2.2516843521902775e+06  -4.2093785987516176e+06  5.9917246274557873e+05  -1.8651733334502373e+06  -9.3445902843468376e+06  4.5234313640263211e+06  1.8143452531386822e-01  0.0000000000000000e+00  2.5397464547871642e+07  -1.3942396848935314e+07  2.0737071718901370e+07  -9.7507518565684520e+06  2.2909140876258947e+07  -1.3468538872184940e+07  2.3201579974977240e+07  -1.3023744946090957e+07  1.8894967112888150e+07  -1.0137380767388524e+07  1.3186896793796130e+07  -6.5133138674921840e+06  8.4043275590226483e+06  -6.4235007039308902e+06  9.4165325295329560e+06  -7.0266009568972299e+06  7.8998373787941327e+06  -5.5738114357253620e+06  5.8743916429587211e+06  -6.0286399275389807e+06  6.0953003740110835e+06  -4.8927385196010824e+06  4.7511300096303485e+06  -4.7006777653649310e+06  7.3877109031916559e+06  -5.4557009358792836e+06  8.2857254999033278e+06  -1.1169491524068007e+07  1.7165490713627249e+07  1.1903948311114844e-01  0.0000000000000000e+00  -2.8938849890510069e+05  -9.0672048120146487e+06  -1.2524150205924844e+07  1.0578399644439758e+06  -1.5385127388315007e+07  3.1800269232633272e+06  -1.4181993958667336e+07  4.4015249411073569e+06  -1.3023901212683594e+07  3.1654743991648848e+06  -7.2063830373246251e+06  1.7640707112558293e+06  -5.5276396902698642e+06  2.8577831996829510e+06  -6.4236025814591050e+06  3.3735899555524765e+06  -5.8132848093714593e+06  4.1764088968746020e+06  -6.1297778135675881e+06  5.3828972907542279e+06  -4.8927385145314271e+06  4.0610452181549738e+06  -4.4570039573297193e+06  4.3819635839993944e+06  -4.4177036375468653e+06  5.5219499631949165e+05  -2.1639106286576013e+06  -8.4514407820692807e+06  7.0123445110698026e+06  7.4315581568560440e-02  3.3087075725317460e-08  3.8031545054963306e+07  -2.4001764708260261e+07  3.3837826597301796e+07  -2.3738670887337316e+07  3.7407906439932637e+07  -2.0279539231970094e+07  2.8548491009597216e+07  -1.4182084422553793e+07  2.3201707832128692e+07  -1.0951228587550726e+07  1.3795577846965039e+07  -6.8914203244516533e+06  1.0646398512361074e+07  -5.8438576951408740e+06  9.8859857413570341e+06  -5.7663062886403855e+06  9.1328412139320616e+06  -5.9793721343045132e+06  7.4553605652601467e+06  -4.6937866887377882e+06  4.7511300024050744e+06  -4.4570039476035079e+06  5.0786170444856668e+06  -4.6686149429053729e+06  4.2223390573392007e+06  -3.2137824417052614e+06  4.4582454543332905e+06  -1.0522421027345106e+07  1.8558937359086547e+07  4.3562429527859700e-02  0.0000000000000000e+00  -7.6962772823663056e+06  -2.4658317424744191e+06  -2.1604708909402475e+07  4.1652392886984772e+06  -2.2531525055572130e+07  7.4837733898513131e+06  -2.0279588739195675e+07  3.1800998461996452e+06  -1.3468561560284073e+07  1.5216585943902279e+06  -5.6397206955851056e+06  -1.1379717448733915e+06  -5.2007489554020045e+06  2.5758995442198063e+05  -6.7614686213678103e+06  1.9756589264196190e+06  -6.6887981337968865e+06  2.0861716625437222e+06  -4.9236754921076410e+06  2.2516843167227060e+06  -4.7006777702758694e+06  4.3819635609708820e+06  -4.6686149371024342e+06  3.4687830839357805e+06  -2.7097788880942441e+06  9.1622434567746951e+05  -5.6330051022725003e+06  -5.1867003290142464e+06  1.0643804894445481e+07  2.3513914480677283e-02  0.0000000000000000e+00  6.7676848991736531e+07  -3.8809900538021378e+07  5.1597103509520829e+07  -3.4957877901734911e+07  4.3361652284827657e+07  -2.2531551775463779e+07  3.7407946378723353e+07  -1.5385142254016012e+07  2.2909103044095680e+07  -9.0354997396567632e+06  1.3863700585405190e+07  -5.3158059439493213e+06  1.3207959463808626e+07  -5.7734320060243746e+06  1.2869312565397497e+07  -4.8980454176201411e+06  1.0213691205818061e+07  -3.4490751604796881e+06  8.1789964566577086e+06  -4.2093784914874062e+06  7.3877108798179394e+06  -4.4177035834522294e+06  4.2223390521991523e+06  -2.7097788825998106e+06  2.0013829508700354e+06  -5.2079775106359357e+06  8.4343205765196821e+05  -5.6833124559816374e+06  1.9793833536094427e+07  1.1339657832116748e-02  0.0000000000000000e+00  -2.1828382829948548e+07  2.1773309065819113e+06  -3.5395200383659378e+07  1.3191482841930518e+07  -3.4957890903015077e+07  4.1652603124636435e+06  -2.3