<?xml version="1.0"?>
<VTKFile type="UnstructuredGrid"  version="0.1"  >
<UnstructuredGrid>
<Piece  NumberOfPoints="961" NumberOfCells="1800">
<Points>
<DataArray  type="Float64"  NumberOfComponents="3"  format="ascii">-1 -1 0  -0.9333333333333333 -1 0  -0.8666666666666667 -1 0  -0.8 -1 0  -0.7333333333333334 -1 0  -0.6666666666666667 -1 0  -0.6 -1 0  -0.5333333333333333 -1 0  -0.4666666666666667 -1 0  -0.4 -1 0  -0.3333333333333334 -1 0  -0.2666666666666667 -1 0  -0.2 -1 0  -0.1333333333333333 -1 0  -0.06666666666666665 -1 0  0 -1 0  0.06666666666666665 -1 0  0.1333333333333333 -1 0  0.2 -1 0  0.2666666666666666 -1 0  0.3333333333333333 -1 0  0.3999999999999999 -1 0  0.4666666666666666 -1 0  0.5333333333333334 -1 0  0.6000000000000001 -1 0  0.6666666666666667 -1 0  0.7333333333333334 -1 0  0.8 -1 0  0.8666666666666667 -1 0  0.9333333333333333 -1 0  1 -1 0  -1 -0.9333333333333333 0  -0.9333333333333333 -0.9333333333333333 0  -0.8666666666666667 -0.9333333333333333 0  -0.8 -0.9333333333333333 0  -0.7333333333333334 -0.9333333333333333 0  -0.6666666666666667 -0.9333333333333333 0  -0.6 -0.9333333333333333 0  -0.5333333333333333 -0.9333333333333333 0  -0.4666666666666667 -0.9333333333333333 0  -0.4 -0.9333333333333333 0  -0.3333333333333334 -0.9333333333333333 0  -0.2666666666666667 -0.9333333333333333 0  -0.2 -0.9333333333333333 0  -0.1333333333333333 -0.9333333333333333 0  -0.06666666666666665 -0.9333333333333333 0  0 -0.9333333333333333 0  0.06666666666666665 -0.9333333333333333 0  0.1333333333333333 -0.9333333333333333 0  0.2 -0.9333333333333333 0  0.2666666666666666 -0.9333333333333333 0  0.3333333333333333 -0.9333333333333333 0  0.3999999999999999 -0.9333333333333333 0  0.4666666666666666 -0.9333333333333333 0  0.5333333333333334 -0.9333333333333333 0  0.6000000000000001 -0.9333333333333333 0  0.6666666666666667 -0.9333333333333333 0  0.7333333333333334 -0.9333333333333333 0  0.8 -0.9333333333333333 0  0.8666666666666667 -0.9333333333333333 0  0.9333333333333333 -0.9333333333333333 0  1 -0.9333333333333333 0  -1 -0.8666666666666667 0  -0.9333333333333333 -0.8666666666666667 0  -0.8666666666666667 -0.8666666666666667 0  -0.8 -0.8666666666666667 0  -0.7333333333333334 -0.8666666666666667 0  -0.6666666666666667 -0.8666666666666667 0  -0.6 -0.8666666666666667 0  -0.5333333333333333 -0.8666666666666667 0  -0.4666666666666667 -0.8666666666666667 0  -0.4 -0.8666666666666667 0  -0.3333333333333334 -0.8666666666666667 0  -0.2666666666666667 -0.8666666666666667 0  -0.2 -0.8666666666666667 0  -0.1333333333333333 -0.8666666666666667 0  -0.06666666666666665 -0.8666666666666667 0  0 -0.8666666666666667 0  0.06666666666666665 -0.8666666666666667 0  0.1333333333333333 -0.8666666666666667 0  0.2 -0.8666666666666667 0  0.2666666666666666 -0.8666666666666667 0  0.3333333333333333 -0.8666666666666667 0  0.3999999999999999 -0.8666666666666667 0  0.4666666666666666 -0.8666666666666667 0  0.5333333333333334 -0.8666666666666667 0  0.6000000000000001 -0.8666666666666667 0  0.6666666666666667 -0.8666666666666667 0  0.7333333333333334 -0.8666666666666667 0  0.8 -0.8666666666666667 0  0.8666666666666667 -0.8666666666666667 0  0.9333333333333333 -0.8666666666666667 0  1 -0.8666666666666667 0  -1 -0.8 0  -0.9333333333333333 -0.8 0  -0.8666666666666667 -0.8 0  -0.8 -0.8 0  -0.7333333333333334 -0.8 0  -0.6666666666666667 -0.8 0  -0.6 -0.8 0  -0.5333333333333333 -0.8 0  -0.4666666666666667 -0.8 0  -0.4 -0.8 0  -0.3333333333333334 -0.8 0  -0.2666666666666667 -0.8 0  -0.2 -0.8 0  -0.1333333333333333 -0.8 0  -0.06666666666666665 -0.8 0  0 -0.8 0  0.06666666666666665 -0.8 0  0.1333333333333333 -0.8 0  0.2 -0.8 0  0.2666666666666666 -0.8 0  0.3333333333333333 -0.8 0  0.3999999999999999 -0.8 0  0.4666666666666666 -0.8 0  0.5333333333333334 -0.8 0  0.6000000000000001 -0.8 0  0.6666666666666667 -0.8 0  0.7333333333333334 -0.8 0  0.8 -0.8 0  0.8666666666666667 -0.8 0  0.9333333333333333 -0.8 0  1 -0.8 0  -1 -0.7333333333333334 0  -0.9333333333333333 -0.7333333333333334 0  -0.8666666666666667 -0.7333333333333334 0  -0.8 -0.7333333333333334 0  -0.7333333333333334 -0.7333333333333334 0  -0.6666666666666667 -0.7333333333333334 0  -0.6 -0.7333333333333334 0  -0.5333333333333333 -0.7333333333333334 0  -0.4666666666666667 -0.7333333333333334 0  -0.4 -0.7333333333333334 0  -0.3333333333333334 -0.7333333333333334 0  -0.2666666666666667 -0.7333333333333334 0  -0.2 -0.7333333333333334 0  -0.1333333333333333 -0.7333333333333334 0  -0.06666666666666665 -0.7333333333333334 0  0 -0.7333333333333334 0  0.06666666666666665 -0.7333333333333334 0  0.1333333333333333 -0.7333333333333334 0  0.2 -0.7333333333333334 0  0.2666666666666666 -0.7333333333333334 0  0.3333333333333333 -0.7333333333333334 0  0.3999999999999999 -0.7333333333333334 0  0.4666666666666666 -0.7333333333333334 0  0.5333333333333334 -0.7333333333333334 0  0.6000000000000001 -0.7333333333333334 0  0.6666666666666667 -0.7333333333333334 0  0.7333333333333334 -0.7333333333333334 0  0.8 -0.7333333333333334 0  0.8666666666666667 -0.7333333333333334 0  0.9333333333333333 -0.7333333333333334 0  1 -0.7333333333333334 0  -1 -0.6666666666666667 0  -0.9333333333333333 -0.6666666666666667 0  -0.8666666666666667 -0.6666666666666667 0  -0.8 -0.6666666666666667 0  -0.7333333333333334 -0.6666666666666667 0  -0.6666666666666667 -0.6666666666666667 0  -0.6 -0.6666666666666667 0  -0.5333333333333333 -0.6666666666666667 0  -0.4666666666666667 -0.6666666666666667 0  -0.4 -0.6666666666666667 0  -0.3333333333333334 -0.6666666666666667 0  -0.2666666666666667 -0.6666666666666667 0  -0.2 -0.6666666666666667 0  -0.1333333333333333 -0.6666666666666667 0  -0.06666666666666665 -0.6666666666666667 0  0 -0.6666666666666667 0  0.06666666666666665 -0.6666666666666667 0  0.1333333333333333 -0.6666666666666667 0  0.2 -0.6666666666666667 0  0.2666666666666666 -0.6666666666666667 0  0.3333333333333333 -0.6666666666666667 0  0.3999999999999999 -0.6666666666666667 0  0.4666666666666666 -0.6666666666666667 0  0.5333333333333334 -0.6666666666666667 0  0.6000000000000001 -0.6666666666666667 0  0.6666666666666667 -0.6666666666666667 0  0.7333333333333334 -0.6666666666666667 0  0.8 -0.6666666666666667 0  0.8666666666666667 -0.6666666666666667 0  0.9333333333333333 -0.6666666666666667 0  1 -0.6666666666666667 0  -1 -0.6 0  -0.9333333333333333 -0.6 0  -0.8666666666666667 -0.6 0  -0.8 -0.6 0  -0.7333333333333334 -0.6 0  -0.6666666666666667 -0.6 0  -0.6 -0.6 0  -0.5333333333333333 -0.6 0  -0.4666666666666667 -0.6 0  -0.4 -0.6 0  -0.3333333333333334 -0.6 0  -0.2666666666666667 -0.6 0  -0.2 -0.6 0  -0.1333333333333333 -0.6 0  -0.06666666666666665 -0.6 0  0 -0.6 0  0.06666666666666665 -0.6 0  0.1333333333333333 -0.6 0  0.2 -0.6 0  0.2666666666666666 -0.6 0  0.3333333333333333 -0.6 0  0.3999999999999999 -0.6 0  0.4666666666666666 -0.6 0  0.5333333333333334 -0.6 0  0.6000000000000001 -0.6 0  0.6666666666666667 -0.6 0  0.7333333333333334 -0.6 0  0.8 -0.6 0  0.8666666666666667 -0.6 0  0.9333333333333333 -0.6 0  1 -0.6 0  -1 -0.5333333333333333 0  -0.9333333333333333 -0.5333333333333333 0  -0.8666666666666667 -0.5333333333333333 0  -0.8 -0.5333333333333333 0  -0.7333333333333334 -0.5333333333333333 0  -0.6666666666666667 -0.5333333333333333 0  -0.6 -0.5333333333333333 0  -0.5333333333333333 -0.5333333333333333 0  -0.4666666666666667 -0.5333333333333333 0  -0.4 -0.5333333333333333 0  -0.3333333333333334 -0.5333333333333333 0  -0.2666666666666667 -0.5333333333333333 0  -0.2 -0.5333333333333333 0  -0.1333333333333333 -0.5333333333333333 0  -0.06666666666666665 -0.5333333333333333 0  0 -0.5333333333333333 0  0.06666666666666665 -0.5333333333333333 0  0.1333333333333333 -0.5333333333333333 0  0.2 -0.5333333333333333 0  0.2666666666666666 -0.5333333333333333 0  0.3333333333333333 -0.5333333333333333 0  0.3999999999999999 -0.5333333333333333 0  0.4666666666666666 -0.5333333333333333 0  0.5333333333333334 -0.5333333333333333 0  0.6000000000000001 -0.5333333333333333 0  0.6666666666666667 -0.5333333333333333 0  0.7333333333333334 -0.5333333333333333 0  0.8 -0.5333333333333333 0  0.8666666666666667 -0.5333333333333333 0  0.9333333333333333 -0.5333333333333333 0  1 -0.5333333333333333 0  -1 -0.4666666666666667 0  -0.9333333333333333 -0.4666666666666667 0  -0.8666666666666667 -0.4666666666666667 0  -0.8 -0.4666666666666667 0  -0.7333333333333334 -0.4666666666666667 0  -0.6666666666666667 -0.4666666666666667 0  -0.6 -0.4666666666666667 0  -0.5333333333333333 -0.4666666666666667 0  -0.4666666666666667 -0.4666666666666667 0  -0.4 -0.4666666666666667 0  -0.3333333333333334 -0.4666666666666667 0  -0.2666666666666667 -0.4666666666666667 0  -0.2 -0.4666666666666667 0  -0.1333333333333333 -0.4666666666666667 0  -0.06666666666666665 -0.4666666666666667 0  0 -0.4666666666666667 0  0.06666666666666665 -0.4666666666666667 0  0.1333333333333333 -0.4666666666666667 0  0.2 -0.4666666666666667 0  0.2666666666666666 -0.4666666666666667 0  0.3333333333333333 -0.4666666666666667 0  0.3999999999999999 -0.4666666666666667 0  0.4666666666666666 -0.4666666666666667 0  0.5333333333333334 -0.4666666666666667 0  0.6000000000000001 -0.4666666666666667 0  0.6666666666666667 -0.4666666666666667 0  0.7333333333333334 -0.4666666666666667 0  0.8 -0.4666666666666667 0  0.8666666666666667 -0.4666666666666667 0  0.9333333333333333 -0.4666666666666667 0  1 -0.4666666666666667 0  -1 -0.4 0  -0.9333333333333333 -0.4 0  -0.8666666666666667 -0.4 0  -0.8 -0.4 0  -0.7333333333333334 -0.4 0  -0.6666666666666667 -0.4 0  -0.6 -0.4 0  -0.5333333333333333 -0.4 0  -0.4666666666666667 -0.4 0  -0.4 -0.4 0  -0.3333333333333334 -0.4 0  -0.2666666666666667 -0.4 0  -0.2 -0.4 0  -0.1333333333333333 -0.4 0  -0.06666666666666665 -0.4 0  0 -0.4 0  0.06666666666666665 -0.4 0  0.1333333333333333 -0.4 0  0.2 -0.4 0  0.2666666666666666 -0.4 0  0.3333333333333333 -0.4 0  0.3999999999999999 -0.4 0  0.4666666666666666 -0.4 0  0.5333333333333334 -0.4 0  0.6000000000000001 -0.4 0  0.6666666666666667 -0.4 0  0.7333333333333334 -0.4 0 
[...]
<PointData  Scalars="f_24"> 
<DataArray  type="Float64"  Name="f_24"  format="ascii">0.0000000000000000e+00  0.0000000000000000e+00  0.0000000000000000e+00  0.0000000000000000e+00  0.0000000000000000e+00  0.0000000000000000e+00  0.0000000000000000e+00  0.0000000000000000e+00  0.0000000000000000e+00  0.0000000000000000e+00  0.0000000000000000e+00  0.0000000000000000e+00  0.0000000000000000e+00  0.0000000000000000e+00  0.0000000000000000e+00  0.0000000000000000e+00  0.0000000000000000e+00  0.0000000000000000e+00  0.0000000000000000e+00  0.0000000000000000e+00  0.0000000000000000e+00  0.0000000000000000e+00  0.0000000000000000e+00  0.0000000000000000e+00  0.0000000000000000e+00  0.0000000000000000e+00  0.0000000000000000e+00  0.0000000000000000e+00  0.0000000000000000e+00  0.0000000000000000e+00  1.1793973990266046e+01  0.0000000000000000e+00  5.7297654275827690e-02  1.1165460962669949e-01  1.6272627967424066e-01  2.1105373327868385e-01  2.5717051295121662e-01  3.0160976140889112e-01  3.4493785915059977e-01  3.8776938230439262e-01  4.3078354083800263e-01  4.7474138006868055e-01  5.2050622665069601e-01  5.6907105509819844e-01  6.2159658097592740e-01  6.7946471976349931e-01  7.4435350929793598e-01  8.1834195765118911e-01  9.0405716755206844e-01  1.0048821793483378e+00  1.1252524534751422e+00  1.2710838869047971e+00  1.4503995185365468e+00  1.6742629809880829e+00  1.9581990920187557e+00  2.3244186763292487e+00  2.8054415999025988e+00  3.4503095700256559e+00  4.3361339835264605e+00  5.5911988127718368e+00  7.4513229524982307e+00  1.0298337923221432e+01  0.0000000000000000e+00  1.1057087711615446e-01  2.0883403387106952e-01  2.9002790425673242e-01  3.5325161215695711e-01  3.9916742143755823e-01  4.2948893869825655e-01  4.4651758447973033e-01  4.5274415646211774e-01  4.5058124543642009e-01  4.4220221307272956e-01  4.2946977982897910e-01  4.1392887473096868e-01  3.9684133063670807e-01  3.7924684946171577e-01  3.6204194008881463e-01  3.4607647992300811e-01  3.3227639179320512e-01  3.2181219664812144e-01  3.1635026467091981e-01  3.1845208638654793e-01  3.3223681208980699e-01  3.6451194472287524e-01  4.2674246313937109e-01  5.3854446115370158e-01  7.3403226636152397e-01  1.0738061443457934e+00  1.6688423707832629e+00  2.7345059944615766e+00  4.7270548387535580e+00  8.9496751567419341e+00  0.0000000000000000e+00  1.5752422491664778e-01  2.8411793267643848e-01  3.6745335142912516e-01  4.0749541464058348e-01  4.1077700479003298e-01  3.8684298540357837e-01  3.4551740060367298e-01  2.9524191108403475e-01  2.4241567599548955e-01  1.9137865870404680e-01  1.4473758284262145e-01  1.0380110192772705e-01  6.8994121871574790e-02  4.0194739686210505e-02  1.6982549255013371e-02  -1.1895688032101874e-03  -1.4878847344570496e-02  -2.4565949543685125e-02  -3.0566827986064041e-02  -3.2894838093682620e-02  -3.0981917839518716e-02  -2.3068171193200187e-02  -4.8508093889752151e-03  3.3488220394895546e-02  1.1377251560768643e-01  2.8397602628053414e-01  6.5005580506311800e-01  1.4500069867526442e+00  3.2670057048914205e+00  7.7380263350135534e+00  0.0000000000000000e+00  1.9692506857912101e-01  3.3589161657030181e-01  3.9798797807265679e-01  3.9238184216698901e-01  3.4133018751459904e-01  2.6868432060083347e-01  1.9322484916420196e-01  1.2653852546849295e-01  7.3846954959558481e-02  3.5954030942827044e-02  1.1199088213744129e-02  -3.0884366590525872e-03  -9.6962628527931648e-03  -1.1082062547885529e-02  -9.2147180675365183e-03  -5.5740363315990721e-03  -1.2225826097179238e-03  3.0998025280324581e-03  6.8833204887827531e-03  9.7699817999917747e-03  1.1508507769532068e-02  1.2007611678478807e-02  1.1713989921992886e-02  1.3004764321217303e-02  2.4520201200119263e-02  7.3531811602297395e-02  2.3895764885667500e-01  7.4254590448118607e-01  2.2022479180330152e+00  6.6537815533034781e+00  0.0000000000000000e+00  2.2836495866092196e-01  3.6648118368843224e-01  3.9377196063182035e-01  3.3906667513351135e-01  2.4699977903507278e-01  1.5429064447937174e-01  8.1100744603613273e-02  3.2896000433423014e-02  6.4254268714161976e-03  -4.8003588064762367e-03  -7.1194884190832605e-03  -5.3030830383151819e-03  -2.3567801207536000e-03  1.3505842838612618e-04  1.5432440703789315e-03  1.7945450807646029e-03  1.0906822585883783e-03  -2.6531648993113524e-04  -1.9661115594853218e-03  -3.7527586044070792e-03  -5.4546745042289117e-03  -7.0485845786814752e-03  -8.7426042564790838e-03  -1.0870113657536562e-02  -1.2406140852721206e-02  -3.5943478458120614e-03  6.2405684337272629e-02  3.6047851823199301e-01  1.5027505598153017e+00  5.6876803579600930e+00  0.0000000000000000e+00  2.5207597517947933e-01  3.8021121020495130e-01  3.6872438200378654e-01  2.7392963561523415e-01  1.6240377564394212e-01  7.5087196652831478e-02  2.3290236974009195e-02  3.6890947156473160e-04  -5.5325019649139617e-03  -4.2373277826864989e-03  -1.4758917212394089e-03  4.0092005582361735e-04  1.0027481656609304e-03  7.4471951258961292e-04  1.8417174087109528e-04  -2.5907197292847063e-04  -3.6385245218859989e-04  -7.4420150975976399e-05  5.5777597479770191e-04  1.4272190248976265e-03  2.4120052479249059e-03  3.3823304742855620e-03  4.1280086078745240e-03  4.0723748749345416e-03  1.9200067164264003e-03  -2.1677244452078409e-03  1.0982286258169634e-02  1.6433695183830369e-01  1.0012330578342503e+00  4.8308117464129738e+00  0.0000000000000000e+00  2.6872235130975419e-01  3.8186050271468946e-01  3.3438483800019436e-01  2.1293323976412362e-01  9.9903350929761589e-02  3.0461497422461056e-02  1.3495263680607021e-03  -4.8213863318217372e-03  -2.8804381567018576e-03  -3.7358138027981496e-04  6.4426351551353752e-04  5.3766306555896480e-04  1.0539352252650606e-04  -1.7401616767836288e-04  -1.9671719417304229e-04  -6.8138823944954572e-05  5.4663747310046420e-05  5.0594478436688017e-05  -1.3716087796972887e-04  -5.0554732489132084e-04  -1.0067459931776940e-03  -1.5550917154161120e-03  -2.0285439361998605e-03  -2.3615242554243200e-03  -3.2010268869391515e-03  -7.0033681810299534e-03  -1.0948209534144916e-02  5.5852139515117166e-02  6.5426700281680539e-01  4.0746141671728884e+00  0.0000000000000000e+00  2.7920057613107951e-01  3.7572496546773304e-01  2.9863452099961818e-01  1.6299129747261659e-01  5.8907754215810543e-02  9.0987483050172270e-03  -3.9341113883923657e-03  -2.8976409742448995e-03  -3.1453630929923317e-04  5.4595245451048409e-04  3.1018868500874648e-04  -3.4800816737578006e-05  -1.2922258537892577e-04  -5.0919638678673687e-05  3.8470474377268372e-05  5.9808029373944968e-05  2.8396225474037109e-05  5.9968893229187912e-06  5.4988202627870052e-05  2.1285738492602061e-04  4.8444347405668549e-04  8.4281216042351342e-04  1.2592255723551415e-03  1.7614630156885711e-03  2.3189384986308393e-03  1.1171758497409920e-03  -6.5253989233856214e-03  1.1292357898355138e-02  4.1534936965024422e-01  3.4108755198318073e+00  0.0000000000000000e+00  2.8447894950000308e-01  3.6521034755328624e-01  2.6604314759508224e-01  1.2540743318389214e-01  3.4141376339668218e-02  4.0770268090596526e-04  -3.6295930530651065e-03  -9.0432692771755577e-04  4.2939749278743242e-04  2.8601703774203092e-04  -3.4817566854507360e-05  -9.0483581690385646e-05  -1.3831240623438460e-05  3.0499934690457740e-05  1.6445562790980989e-05  -1.1917395065569950e-05  -2.0136286602732003e-05  -1.1176901065173753e-05  -1.3113089814998095e-05  -5.7037184683191093e-05  -1.6144420303974307e-04  -3.2652847163114015e-04  -5.5468953575566078e-04  -7.9461574825237568e-04  -8.4492278016371056e-04  -9.3660817114971963e-04  -6.6064549218988119e-03  -1.1946285131012676e-02  2.4673601599586525e-01  2.8317331550628770e+00  0.0000000000000000e+00  2.8548760706851212e-01  3.5277130540006979e-01  2.3878584704731803e-01  9.8845744058527002e-02  2.0101952442781474e-02  -2.4081159626846349e-03  -2.3093346770045016e-03  3.0247943496116548e-05  3.6878421615477158e-04  2.7132957003082477e-05  -7.8453936475209854e-05  -1.4741640270994904e-05  2.2145547901839799e-05  7.5787688802582747e-06  -7.8274576866156507e-06  -4.3951071597133804e-06  6.0781658820774334e-06  1.0776613878706281e-05  1.4694222887402545e-05  3.8458417054685678e-05  1.0923272479673144e-04  2.4692066325161246e-04  4.6364237667732941e-04  6.8930383816981713e-04  1.0221383440225248e-03  1.6719976824875254e-03  -4.5236152598622596e-04  -1.4763190934007278e-02  1.3868269061832084e-01  2.3296738746204548e+00  0.0000000000000000e+00  2.8305500298175251e-01  3.4002578987530657e-01  2.1754948293642123e-01  8.1181392778075831e-02  1.2632570082077623e-02  -2.9015797803532578e-03  -1.2991706760786753e-03  2.9464685669303105e-04  1.8702654686186351e-04  -5.6059107317541335e-05  -3.4883510873309454e-05  1.4448067640555376e-05  8.8201667399253848e-06  -5.2535942801525553e-06  -2.8478946024800407e-06  2.1232197267630247e-06  5.7909592249029763e-07  -3.8779725227898540e-06  -5.6232304779955806e-06  -5.4579735544428327e-06  -8.7889671409431990e-06  -1.4489801797435354e-05  -3.1023238337528279e-05  -4.2054041324816183e-05  -2.0623350993232613e-04  1.0739736032102169e-04  -5.1895564960800224e-04  -1.4654558696986500e-02  6.2607239045003940e-02  1.8975339313400756e+00  0.0000000000000000e+00  2.7787892715986323e-01  3.2792975122432555e-01  2.0221323548617365e-01  7.0415057781456125e-02  9.0639568829649995e-03  -2.6570927673921158e-03  -7.4563610149809664e-04  3.0029200907802844e-04  7.4908668402116636e-05  -5.6104003624645448e-05  -5.3930701323428431e-06  1.2443712160974863e-05  -8.4234318259077701e-07  -3.4438985274868322e-06  1.1904054042861322e-06  9.0710541588664277e-07  -7.9636342085142554e-07  -2.4301000323401552e-07  1.8350915392387961e-06  7.0824774552841681e-06  3.1236132449855198e-05  9.7039351773318716e-05  2.4782020478658005e-04  4.4864343340803004e-04  7.0538838471113636e-04  8.4189109024394144e-04  2.0416525699864458e-03  -9.6432022762343549e-03  1.9620713175671472e-02  1.5284990291384795e+00  0.0000000000000000e+00  2.7052319768933636e-01  3.1694651607466195e-01  1.9228464748359314e-01  6.5010743248360689e-02  7.8850637556575204e-03  -2.2647781053711270e-03  -5.1640955720606309e-04  2.4563066880649206e-04  3.1563198222747294e-05  -4.0349153324262631e-05  3.3118707215051158e-06  6.5974458551987729e-06  -2.4002876422489129e-06  -9.4714408622654219e-07  1.0767310927837714e-06  -1.6650875459420405e-07  -3.2375789824935102e-07  -2.6713415298088158e-07  -2.0775230320824452e-06  -2.8793190167861991e-06  6.9164021076755559e-06  5.5953047440070736e-05  1.4536884213058794e-04  3.2519254565921727e-04  3.8241055590434119e-04  4.1578305816236146e-04  1.0254307152629339e-03  -5.7912440476195473e-03  -9.4266931399036233e-03  1.2161043230135931e+00  0.0000000000000000e+00  2.6142233885057631e-01  3.0718911876346416e-01  1.8713772624121414e-01  6.3947068337442500e-02  8.3779945223882695e-03  -1.8635479432490985e-03  -4.8502102853482969e-04  1.9060313132001955e-04  2.6442400538251931e-05  -2.8771855128185868e-05  2.5219995425493241e-06  3.9034875351783514e-06  -1.4890185708297222e-06  -3.3146201763672673e-07  3.9882000264956964e-07  -1.3142798716663196e-07  1.2867812573792606e-07  1.7229288406788348e-08  -1.5626625632749468e-06  -3.2455691511998179e-06  1.1374585779936027e-05  7.2623527099777182e-05  2.5293071402465565e-04  4.9781885195708281e-04  8.8728060564523996e-04  8.0147894399267125e-04  1.7741287090279401e-03  -1.8904455755511438e-03  -2.1622923550704481e-02  9.5423441904453776e-01  0.0000000000000000e+00  2.5090552131775062e-01  2.9852048991036984e-01  1.8612292125470348e-01  6.6644470682823254e-02  1.0359384341428879e-02  -1.3809577370228884e-03  -5.7579488761235647e-04  1.3351076011967509e-04  4.0323072429278097e-05  -2.0580796747916974e-05  -1.6164850376556504e-06  2.9969858179563226e-06  -2.0377126392078888e-07  -2.4594810997140848e-07  4.3672511199332088e-08  -6.5070279514431040e-08  2.3600796468562008e-07  3.4963757789728910e-07  -2.0897401956235483e-06  -6.0943065728760395e-06  3.5143616686543571e-06  8.6449291006090453e-05  2.7806101259261436e-04  6.3940659399285623e-04  9.1538197829204204e-04  1.0728224983386075e-03  9.4886944261393950e-04  6.7617643626899425e-04  -2.8417335348669349e-02  7.3712337439162789e-01  0.0000000000000000e+00  2.3919714872639239e-01  2.9063088299143047e-01  1.8858149042470759e-01  7.2857988397683676e-02  1.4029126645018776e-02  -5.9254204951735868e-04  -7.3432985058557575e-04  4.6317552985092820e-05  6.1176487681417207e-05  -8.7430730794847727e-06  -6.4656453257262219e-06  1.1584631536381161e-06  8.4336499191853344e-07  1.6122656593189837e-07  -6.6051847039747341e-08  -1.2723709965704259e-07  4.8018381756408448e-07  8.4751092357064267e-07  -2.9800782281757567e-06  -1.0668556632420988e-05  6.9259342386845898e-06  1.1327806181654664e-04  4.1055818474847145e-04  8.4348748565521328e-04  1.3485031182118130e-03  1.4521327435529662e-03  1.2843731239782019e-03  2.3259940144947948e-03  -2.7679485003267744e-02  5.5935469729637088e-01  0.0000000000000000e+00  2.2646559694820600e-01  2.8307689579630307e-01  1.9382754196161528e-01  8.2543146756963406e-02  1.9900061889094191e-02  9.1799687433656606e-04  -8.6068998997103113e-04  -1.1015357375248300e-04  6.7640194923760058e-05  1.3430905169792446e-05  -6.6397064553802750e-06  -2.7173628027777516e-06  -1.7890842027349518e-07  -9.9637824687614840e-08  -4.0815063645329714e-07  -4.0261918591205327e-08  1.3244935840104039e-06  1.1280317756908936e-06  -6.9947699116997536e-06  -1.5993439797788632e-05  1.3012609641866247e-05  1.9170585393063665e-04  5.7497117774208155e-04  1.2099930873583273e-03  1.6698706091257661e-03  1.9966608930256880e-03  1.0666502231525996e-03  3.2341908338925510e-03  -2.5511902366778718e-02  4.1586134708146738e-01  0.0000000000000000e+00  2.1278443066099800e-01  2.7532140246480408e-01  2.0106693821461091e-01  9.5713679595076664e-02  2.8741419004586773e-02  3.8647707554157469e-03  -6.9118579777807318e-04  -3.4912599918492115e-04  1.1281622888538364e-05  3.7192693334062952e-05  7.0652362283096594e-06  -2.3618513191930506e-06  -2.2328407033597717e-06  -1.3657669853851108e-06  -4.2666853576717757e-07  1.4599784822753745e-06  2.9019193697928165e-06  -1.7352515867363159e-06  -1.6980773997931265e-05  -2.2926496481514931e-05  5.5740517188076835e-05  3.3903369773935775e-04  9.2005012644324634e-04  1.6870036850179743e-03  2.3073583623013190e-03  2.4920371439399827e-03  1.4954589086095583e-03  3.4458109197358909e-03  -2.0803619174990049e-02  3.0192573415081086e-01  0.0000000000000000e+00  1.9823725843456316e-01  2.6674630690798140e-01  2.0935812963807668e-01  1.1224921735035090e-01  4.1494331444594933e-02  9.3796122913013310e-03  4.0819216026263973e-04  -5.3384915536940319e-04  -1.6686315230977211e-04  8.6223355686133119e-06  2.4609066013743684e-05  1.1732937158315573e-05  4.7416424051566122e-06  3.2439463499590038e-06  4.1926469173107257e-06  4.8476446686648885e-06  -1.1051725889416335e-07  -1.6373220044873507e-05  -3.5938421663075015e-05  -5.3219178120120987e-06  1.8221277559045155e-04  6.7693276223227772e-04  1.4797142111550306e-03  2.4685715681177396e-03  3.0429327029540378e-03  3.1870895608879777e-03  1.7660924737152859e-03  3.4179488792930889e-03  -1.6383641388842692e-02  2.1317971998948795e-01  0.0000000000000000e+00  1.8278590210007514e-01  2.5667447354682477e-01  2.1748184109936014e-01  1.3166462277635840e-01  5.9048344799733393e-02  1.9066942355703245e-02  3.7324476350838686e-03  -7.1711580080788002e-05  -3.7508019603168461e-04  -1.5388991671986841e-04  -2.9554923190105649e-05  5.2392456107883766e-06  9.6737471972839740e-06  7.6660534587622895e-06  2.9773071405436638e-06  -7.7961745035846166e-06  -2.8173795615619664e-05  -4.9948976422177138e-05  -3.1101520771409881e-05  1.2322602452971202e-04  5.5297160752544562e-04  1.3551818436150979e-03  2.4680547557690284e-03  3.5584318791500990e-03  4.0975505727553563e-03  3.8772054650914318e-03  2.3165902174045660e-03  3.0925954024878352e-03  -1.1778030570795444e-02  1.4560461716377843e-01  0.0000000000000000e+00  1.6650255932280011e-01  2.4440615004409522e-01  2.2397720692694342e-01  1.5284659368053446e-01  8.1857827606635708e-02  3.4820749017017011e-02  1.1487845446085033e-02  2.6091852789777575e-03  1.2344285583871384e-04  -2.7000872963785379e-04  -2.0459157409593857e-04  -1.1749919551043311e-04  -7.1823752595823274e-05  -5.6785150409614308e-05  -6.0023354091186037e-05  -7.1943954375774588e-05  -7.3743072940633109e-05  -1.9913509324621260e-05  1.7628789209737588e-04  6.3951659103462480e-04  1.4761420073842249e-03  2.6917156275672997e-03  4.0454221470792350e-03  5.1311347736537260e-03  5.3544908684460095e-03  4.7088379755603222e-03  2.7913992048750171e-03  2.7857647202585798e-03  -8.0409485994872663e-03  9.5531189321155036e-02  0.0000000000000000e+00  1.4925394705202133e-01  2.2920434225482067e-01  2.2698927103702254e-01  1.7374397175943770e-01  1.0926842435608608e-01  5.8158081960241227e-02  2.6625367442089268e-02  1.0555284105419789e-02  3.5921920924509121e-03  9.9013655679119341e-04  1.5222615934918496e-04  -7.1227817499771803e-05  -1.0923725958689110e-04  -9.6236925066247607e-05  -5.8638651999657907e-05  2.2290764222146999e-05  1.9712438442099256e-04  5.4724598605441295e-04  1.1749369752879456e-03  2.1642647655138168e-03  3.5178644052041514e-03  5.0651365644289971e-03  6.4487506581128728e-03  7.1760457604528828e-03  6.8536437443906216e-03  5.5256023720083921e-03  3.3006034688977137e-03  2.4387696665206845e-03  -4.9545899662560219e-03  5.9639651190283652e-02  0.0000000000000000e+00  1.3118279987282130e-01  2.1045335602270873e-01  2.2455174456159666e-01  1.9128298463828194e-01  1.3882159630829286e-01  8.8961582704164752e-02  5.1698431396984712e-02  2.7934454801696179e-02  1.4430154061149123e-02  7.3756019886541012e-03  3.9005136443667535e-03  2.2603052825491154e-03  1.5318152338142928e-03  1.2775220344023088e-03  1.3180060810500513e-03  1.6064630644706667e-03  2.1628396153355800e-03  3.0315712165605636e-03  4.2385647468619614e-03  5.7422753316962146e-03  7.3779084456922113e-03  8.8428050511214426e-03  9.7195749420526320e-03  9.6390171927561059e-03  8.4085962004557587e-03  6.3082345893382035e-03  3.6811346263164861e-03  2.1737758661757945e-03  -2.7433157214017140e-03  3.4959668581023153e-02  0.0000000000000000e+00  1.1206801704835372e-01  1.8750886941728745e-01  2.1441939573594193e-01  2.0124338974418962e-01  1.6548979374943504e-01  1.2367050629170862e-01  8.6290069163270561e-02  5.7605875809175804e-02  3.7715718660272998e-02  2.4858429723799647e-02  1.6947528857543911e-02  1.2267731766529160e-02  9.6321901500011631e-03  8.3022943352431631e-03  7.8498572292122221e-03  8.0351049424432948e-03  8.7144339661082496e-03  9.7715098037348489e-03  1.1064997965185992e-02  1.2389733631924339e-02  1.3468021771335315e-02  1.3968411343953354e-02  1.3593959240166202e-02  1.2175804308902553e-02  9.8094305210295017e-03  6.8847710294291523e-03  3.9214130478555913e-03  1.9412789633081059e-03  -1.2367764853745222e-03  1.8870358384425658e-02  0.0000000000000000e+00  9.2244735469003275e-02  1.6020494806455693e-01  1.9491672845290225e-01  1.9911158857094047e-01  1.8203656188828879e-01  1.5417074285157442e-01  1.2390804833166248e-01  9.6407517070745422e-02  7.3942044861048356e-02  5.6855283994196121e-02  4.4504787846910282e-02  3.5922176791640961e-02  3.0168747682328141e-02  2.6472450300770452e-02  2.4242489666956892e-02  2.3031922521546646e-02  2.2486689980374841e-02  2.2300785842353055e-02  2.2184611887419697e-02  2.1855273582749024e-02  2.1045455731109861e-02  1.9545398556509119e-02  1.7248315411903001e-02  1.4217584365508951e-02  1.0699878160921271e-02  7.1207239329467084e-03  3.9393511112484495e-03  1.7446453520398306e-03  -3.4847762758480019e-04  9.1002885727361378e-03  0.0000000000000000e+00  7.1447310692919735e-02  1.2830889336665890e-01  1.6459033858431943e-01  1.8047418419739519e-01  1.7985265230963307e-01  1.6810813888105855e-01  1.5041395079234410e-01  1.3081672915994152e-01  1.1197723820401491e-01  9.5326970990563475e-02  8.1398836613525247e-02  7.0166771114465329e-02  6.1312873632690432e-02  5.4403546913913088e-02  4.898796