<?xml version="1.0"?>
<VTKFile type="UnstructuredGrid"  version="0.1"  >
<UnstructuredGrid>
<Piece  NumberOfPoints="961" NumberOfCells="1800">
<Points>
<DataArray  type="Float64"  NumberOfComponents="3"  format="ascii">-1 -1 0  -0.9333333333333333 -1 0  -0.8666666666666667 -1 0  -0.8 -1 0  -0.7333333333333334 -1 0  -0.6666666666666667 -1 0  -0.6 -1 0  -0.5333333333333333 -1 0  -0.4666666666666667 -1 0  -0.4 -1 0  -0.3333333333333334 -1 0  -0.2666666666666667 -1 0  -0.2 -1 0  -0.1333333333333333 -1 0  -0.06666666666666665 -1 0  0 -1 0  0.06666666666666665 -1 0  0.1333333333333333 -1 0  0.2 -1 0  0.2666666666666666 -1 0  0.3333333333333333 -1 0  0.3999999999999999 -1 0  0.4666666666666666 -1 0  0.5333333333333334 -1 0  0.6000000000000001 -1 0  0.6666666666666667 -1 0  0.7333333333333334 -1 0  0.8 -1 0  0.8666666666666667 -1 0  0.9333333333333333 -1 0  1 -1 0  -1 -0.9333333333333333 0  -0.9333333333333333 -0.9333333333333333 0  -0.8666666666666667 -0.9333333333333333 0  -0.8 -0.9333333333333333 0  -0.7333333333333334 -0.9333333333333333 0  -0.6666666666666667 -0.9333333333333333 0  -0.6 -0.9333333333333333 0  -0.5333333333333333 -0.9333333333333333 0  -0.4666666666666667 -0.9333333333333333 0  -0.4 -0.9333333333333333 0  -0.3333333333333334 -0.9333333333333333 0  -0.2666666666666667 -0.9333333333333333 0  -0.2 -0.9333333333333333 0  -0.1333333333333333 -0.9333333333333333 0  -0.06666666666666665 -0.9333333333333333 0  0 -0.9333333333333333 0  0.06666666666666665 -0.9333333333333333 0  0.1333333333333333 -0.9333333333333333 0  0.2 -0.9333333333333333 0  0.2666666666666666 -0.9333333333333333 0  0.3333333333333333 -0.9333333333333333 0  0.3999999999999999 -0.9333333333333333 0  0.4666666666666666 -0.9333333333333333 0  0.5333333333333334 -0.9333333333333333 0  0.6000000000000001 -0.9333333333333333 0  0.6666666666666667 -0.9333333333333333 0  0.7333333333333334 -0.9333333333333333 0  0.8 -0.9333333333333333 0  0.8666666666666667 -0.9333333333333333 0  0.9333333333333333 -0.9333333333333333 0  1 -0.9333333333333333 0  -1 -0.8666666666666667 0  -0.9333333333333333 -0.8666666666666667 0  -0.8666666666666667 -0.8666666666666667 0  -0.8 -0.8666666666666667 0  -0.7333333333333334 -0.8666666666666667 0  -0.6666666666666667 -0.8666666666666667 0  -0.6 -0.8666666666666667 0  -0.5333333333333333 -0.8666666666666667 0  -0.4666666666666667 -0.8666666666666667 0  -0.4 -0.8666666666666667 0  -0.3333333333333334 -0.8666666666666667 0  -0.2666666666666667 -0.8666666666666667 0  -0.2 -0.8666666666666667 0  -0.1333333333333333 -0.8666666666666667 0  -0.06666666666666665 -0.8666666666666667 0  0 -0.8666666666666667 0  0.06666666666666665 -0.8666666666666667 0  0.1333333333333333 -0.8666666666666667 0  0.2 -0.8666666666666667 0  0.2666666666666666 -0.8666666666666667 0  0.3333333333333333 -0.8666666666666667 0  0.3999999999999999 -0.8666666666666667 0  0.4666666666666666 -0.8666666666666667 0  0.5333333333333334 -0.8666666666666667 0  0.6000000000000001 -0.8666666666666667 0  0.6666666666666667 -0.8666666666666667 0  0.7333333333333334 -0.8666666666666667 0  0.8 -0.8666666666666667 0  0.8666666666666667 -0.8666666666666667 0  0.9333333333333333 -0.8666666666666667 0  1 -0.8666666666666667 0  -1 -0.8 0  -0.9333333333333333 -0.8 0  -0.8666666666666667 -0.8 0  -0.8 -0.8 0  -0.7333333333333334 -0.8 0  -0.6666666666666667 -0.8 0  -0.6 -0.8 0  -0.5333333333333333 -0.8 0  -0.4666666666666667 -0.8 0  -0.4 -0.8 0  -0.3333333333333334 -0.8 0  -0.2666666666666667 -0.8 0  -0.2 -0.8 0  -0.1333333333333333 -0.8 0  -0.06666666666666665 -0.8 0  0 -0.8 0  0.06666666666666665 -0.8 0  0.1333333333333333 -0.8 0  0.2 -0.8 0  0.2666666666666666 -0.8 0  0.3333333333333333 -0.8 0  0.3999999999999999 -0.8 0  0.4666666666666666 -0.8 0  0.5333333333333334 -0.8 0  0.6000000000000001 -0.8 0  0.6666666666666667 -0.8 0  0.7333333333333334 -0.8 0  0.8 -0.8 0  0.8666666666666667 -0.8 0  0.9333333333333333 -0.8 0  1 -0.8 0  -1 -0.7333333333333334 0  -0.9333333333333333 -0.7333333333333334 0  -0.8666666666666667 -0.7333333333333334 0  -0.8 -0.7333333333333334 0  -0.7333333333333334 -0.7333333333333334 0  -0.6666666666666667 -0.7333333333333334 0  -0.6 -0.7333333333333334 0  -0.5333333333333333 -0.7333333333333334 0  -0.4666666666666667 -0.7333333333333334 0  -0.4 -0.7333333333333334 0  -0.3333333333333334 -0.7333333333333334 0  -0.2666666666666667 -0.7333333333333334 0  -0.2 -0.7333333333333334 0  -0.1333333333333333 -0.7333333333333334 0  -0.06666666666666665 -0.7333333333333334 0  0 -0.7333333333333334 0  0.06666666666666665 -0.7333333333333334 0  0.1333333333333333 -0.7333333333333334 0  0.2 -0.7333333333333334 0  0.2666666666666666 -0.7333333333333334 0  0.3333333333333333 -0.7333333333333334 0  0.3999999999999999 -0.7333333333333334 0  0.4666666666666666 -0.7333333333333334 0  0.5333333333333334 -0.7333333333333334 0  0.6000000000000001 -0.7333333333333334 0  0.6666666666666667 -0.7333333333333334 0  0.7333333333333334 -0.7333333333333334 0  0.8 -0.7333333333333334 0  0.8666666666666667 -0.7333333333333334 0  0.9333333333333333 -0.7333333333333334 0  1 -0.7333333333333334 0  -1 -0.6666666666666667 0  -0.9333333333333333 -0.6666666666666667 0  -0.8666666666666667 -0.6666666666666667 0  -0.8 -0.6666666666666667 0  -0.7333333333333334 -0.6666666666666667 0  -0.6666666666666667 -0.6666666666666667 0  -0.6 -0.6666666666666667 0  -0.5333333333333333 -0.6666666666666667 0  -0.4666666666666667 -0.6666666666666667 0  -0.4 -0.6666666666666667 0  -0.3333333333333334 -0.6666666666666667 0  -0.2666666666666667 -0.6666666666666667 0  -0.2 -0.6666666666666667 0  -0.1333333333333333 -0.6666666666666667 0  -0.06666666666666665 -0.6666666666666667 0  0 -0.6666666666666667 0  0.06666666666666665 -0.6666666666666667 0  0.1333333333333333 -0.6666666666666667 0  0.2 -0.6666666666666667 0  0.2666666666666666 -0.6666666666666667 0  0.3333333333333333 -0.6666666666666667 0  0.3999999999999999 -0.6666666666666667 0  0.4666666666666666 -0.6666666666666667 0  0.5333333333333334 -0.6666666666666667 0  0.6000000000000001 -0.6666666666666667 0  0.6666666666666667 -0.6666666666666667 0  0.7333333333333334 -0.6666666666666667 0  0.8 -0.6666666666666667 0  0.8666666666666667 -0.6666666666666667 0  0.9333333333333333 -0.6666666666666667 0  1 -0.6666666666666667 0  -1 -0.6 0  -0.9333333333333333 -0.6 0  -0.8666666666666667 -0.6 0  -0.8 -0.6 0  -0.7333333333333334 -0.6 0  -0.6666666666666667 -0.6 0  -0.6 -0.6 0  -0.5333333333333333 -0.6 0  -0.4666666666666667 -0.6 0  -0.4 -0.6 0  -0.3333333333333334 -0.6 0  -0.2666666666666667 -0.6 0  -0.2 -0.6 0  -0.1333333333333333 -0.6 0  -0.06666666666666665 -0.6 0  0 -0.6 0  0.06666666666666665 -0.6 0  0.1333333333333333 -0.6 0  0.2 -0.6 0  0.2666666666666666 -0.6 0  0.3333333333333333 -0.6 0  0.3999999999999999 -0.6 0  0.4666666666666666 -0.6 0  0.5333333333333334 -0.6 0  0.6000000000000001 -0.6 0  0.6666666666666667 -0.6 0  0.7333333333333334 -0.6 0  0.8 -0.6 0  0.8666666666666667 -0.6 0  0.9333333333333333 -0.6 0  1 -0.6 0  -1 -0.5333333333333333 0  -0.9333333333333333 -0.5333333333333333 0  -0.8666666666666667 -0.5333333333333333 0  -0.8 -0.5333333333333333 0  -0.7333333333333334 -0.5333333333333333 0  -0.6666666666666667 -0.5333333333333333 0  -0.6 -0.5333333333333333 0  -0.5333333333333333 -0.5333333333333333 0  -0.4666666666666667 -0.5333333333333333 0  -0.4 -0.5333333333333333 0  -0.3333333333333334 -0.5333333333333333 0  -0.2666666666666667 -0.5333333333333333 0  -0.2 -0.5333333333333333 0  -0.1333333333333333 -0.5333333333333333 0  -0.06666666666666665 -0.5333333333333333 0  0 -0.5333333333333333 0  0.06666666666666665 -0.5333333333333333 0  0.1333333333333333 -0.5333333333333333 0  0.2 -0.5333333333333333 0  0.2666666666666666 -0.5333333333333333 0  0.3333333333333333 -0.5333333333333333 0  0.3999999999999999 -0.5333333333333333 0  0.4666666666666666 -0.5333333333333333 0  0.5333333333333334 -0.5333333333333333 0  0.6000000000000001 -0.5333333333333333 0  0.6666666666666667 -0.5333333333333333 0  0.7333333333333334 -0.5333333333333333 0  0.8 -0.5333333333333333 0  0.8666666666666667 -0.5333333333333333 0  0.9333333333333333 -0.5333333333333333 0  1 -0.5333333333333333 0  -1 -0.4666666666666667 0  -0.9333333333333333 -0.4666666666666667 0  -0.8666666666666667 -0.4666666666666667 0  -0.8 -0.4666666666666667 0  -0.7333333333333334 -0.4666666666666667 0  -0.6666666666666667 -0.4666666666666667 0  -0.6 -0.4666666666666667 0  -0.5333333333333333 -0.4666666666666667 0  -0.4666666666666667 -0.4666666666666667 0  -0.4 -0.4666666666666667 0  -0.3333333333333334 -0.4666666666666667 0  -0.2666666666666667 -0.4666666666666667 0  -0.2 -0.4666666666666667 0  -0.1333333333333333 -0.4666666666666667 0  -0.06666666666666665 -0.4666666666666667 0  0 -0.4666666666666667 0  0.06666666666666665 -0.4666666666666667 0  0.1333333333333333 -0.4666666666666667 0  0.2 -0.4666666666666667 0  0.2666666666666666 -0.4666666666666667 0  0.3333333333333333 -0.4666666666666667 0  0.3999999999999999 -0.4666666666666667 0  0.4666666666666666 -0.4666666666666667 0  0.5333333333333334 -0.4666666666666667 0  0.6000000000000001 -0.4666666666666667 0  0.6666666666666667 -0.4666666666666667 0  0.7333333333333334 -0.4666666666666667 0  0.8 -0.4666666666666667 0  0.8666666666666667 -0.4666666666666667 0  0.9333333333333333 -0.4666666666666667 0  1 -0.4666666666666667 0  -1 -0.4 0  -0.9333333333333333 -0.4 0  -0.8666666666666667 -0.4 0  -0.8 -0.4 0  -0.7333333333333334 -0.4 0  -0.6666666666666667 -0.4 0  -0.6 -0.4 0  -0.5333333333333333 -0.4 0  -0.4666666666666667 -0.4 0  -0.4 -0.4 0  -0.3333333333333334 -0.4 0  -0.2666666666666667 -0.4 0  -0.2 -0.4 0  -0.1333333333333333 -0.4 0  -0.06666666666666665 -0.4 0  0 -0.4 0  0.06666666666666665 -0.4 0  0.1333333333333333 -0.4 0  0.2 -0.4 0  0.2666666666666666 -0.4 0  0.3333333333333333 -0.4 0  0.3999999999999999 -0.4 0  0.4666666666666666 -0.4 0  0.5333333333333334 -0.4 0  0.6000000000000001 -0.4 0  0.6666666666666667 -0.4 0  0.7333333333333334 -0.4 0 
[...]
<PointData  Scalars="f_24"> 
<DataArray  type="Float64"  Name="f_24"  format="ascii">0.0000000000000000e+00  0.0000000000000000e+00  0.0000000000000000e+00  0.0000000000000000e+00  0.0000000000000000e+00  0.0000000000000000e+00  0.0000000000000000e+00  0.0000000000000000e+00  0.0000000000000000e+00  0.0000000000000000e+00  0.0000000000000000e+00  0.0000000000000000e+00  0.0000000000000000e+00  0.0000000000000000e+00  0.0000000000000000e+00  0.0000000000000000e+00  0.0000000000000000e+00  0.0000000000000000e+00  0.0000000000000000e+00  0.0000000000000000e+00  0.0000000000000000e+00  0.0000000000000000e+00  0.0000000000000000e+00  0.0000000000000000e+00  0.0000000000000000e+00  0.0000000000000000e+00  0.0000000000000000e+00  0.0000000000000000e+00  0.0000000000000000e+00  0.0000000000000000e+00  1.3909731766380892e+01  0.0000000000000000e+00  3.3082309115937416e-03  1.5823085065336966e-02  3.9069030123446674e-02  7.1933641541621393e-02  1.1263583010853537e-01  1.5953156319784101e-01  2.1131917472851416e-01  2.6708713207871715e-01  3.2630967650561193e-01  3.8882785233955408e-01  4.5483286161257674e-01  5.2485993437378020e-01  5.9979865468274252e-01  6.8092568558477307e-01  7.6996705672336718e-01  8.6919984034305475e-01  9.8160750221369586e-01  1.1111102949097920e+00  1.2629032024658906e+00  1.4439515985266054e+00  1.6637234165472761e+00  1.9352849325581110e+00  2.2769725677790640e+00  2.7150148819312738e+00  3.2878034871513675e+00  4.0532256593230551e+00  5.1022720663802765e+00  6.5863503039561317e+00  8.7836137328510588e+00  1.2145788880811907e+01  0.0000000000000000e+00  6.0908467029709467e-03  2.7164179920585268e-02  6.3906154565889439e-02  1.1095104489466957e-01  1.6199832925001750e-01  2.1182232552327201e-01  2.5676166067233086e-01  2.9467836041850232e-01  3.2467740848933868e-01  3.4676835600663886e-01  3.6155500599831009e-01  3.6998951825681314e-01  3.7320093664789478e-01  3.7239430299808907e-01  3.6881271706317081e-01  3.6375749265872920e-01  3.5866925582345616e-01  3.5528591310327462e-01  3.5591445277250500e-01  3.6388844582297830e-01  3.8434330848684561e-01  4.2554820010051209e-01  5.0122952170421486e-01  6.3469319845611272e-01  8.6631581266556457e-01  1.2676774213241595e+00  1.9697696341342485e+00  3.2265965086626038e+00  5.5765216279397700e+00  1.0555185294563721e+01  0.0000000000000000e+00  8.0139052114897857e-03  3.2990574545142960e-02  7.2282555097308715e-02  1.1487065651308585e-01  1.5072919611099933e-01  1.7394119839213470e-01  1.8271214723425072e-01  1.7824458127609866e-01  1.6337362798298302e-01  1.4146308957305606e-01  1.1568930894247800e-01  8.8677527383767732e-02  6.2390560445020178e-02  3.8166959601217139e-02  1.6830644957734002e-02  -1.1768647349125097e-03  -1.5665118396384320e-02  -2.6567149889612701e-02  -3.3798450381738593e-02  -3.7056294060304043e-02  -3.5456945198910780e-02  -2.6787674388343549e-02  -5.8915517867380108e-03  3.8855781919067481e-02  1.3320848441836736e-01  3.3375790052329818e-01  7.6542682977991472e-01  1.7089999473343793e+00  3.8518855629269053e+00  9.1261750119225038e+00  0.0000000000000000e+00  9.0300725492775662e-03  3.4023199953557744e-02  6.8316721061680907e-02  9.7119016052164595e-02  1.1089324849479033e-01  1.0794977487217113e-01  9.2122063045614405e-02  6.9412056261317676e-02  4.5435562373315412e-02  2.4179173637599145e-02  7.7748678091562641e-03  -3.1646003484164381e-03  -9.0311507691178596e-03  -1.0747267223002867e-02  -9.4185021483555696e-03  -6.1199982832765652e-03  -1.7900867949333119e-03  2.8029338637334945e-03  7.0500145319374145e-03  1.0470849517366293e-02  1.2696402101480356e-02  1.3550376034674617e-02  1.3503673606309035e-02  1.5317044229935293e-02  2.9157851560445203e-02  8.7156313435331187e-02  2.8243348727960571e-01  8.7634559184746696e-01  2.5982123232181333e+00  7.8474241773749078e+00  0.0000000000000000e+00  9.2478937813596333e-03  3.1732682303588534e-02  5.7790072603623246e-02  7.2197545237590963e-02  6.9590523252753236e-02  5.4173797597181793e-02  3.3929949492865187e-02  1.5669023895023029e-02  2.9507327535208184e-03  -3.6828897360851346e-03  -5.5103163584815772e-03  -4.4317192465321217e-03  -2.1880474236808840e-03  -1.7992444905986621e-05  1.3858955647230303e-03  1.7735679865112028e-03  1.1923697825977420e-03  -1.4461578808897717e-04  -1.9584701087027481e-03  -3.9766523024061771e-03  -5.9967209429284529e-03  -7.9708774699946191e-03  -1.0116927490004151e-02  -1.2797143752320397e-02  -1.4785153677785394e-02  -4.5280476008652572e-03  7.3151210644013157e-02  4.2474820387217671e-01  1.7715853449831642e+00  6.7080110756080700e+00  0.0000000000000000e+00  8.8557870480133437e-03  2.7628184226985601e-02  4.5377006011507071e-02  4.9153979703267188e-02  3.8767198542078093e-02  2.2338680734192908e-02  7.9901528128283120e-03  -4.6331208204989364e-04  -3.3051726755019216e-03  -2.7632776166511448e-03  -1.1078253171991959e-03  2.4624046017484571e-04  8.0315537211153620e-04  6.7167895242356654e-04  2.1005621581796183e-04  -2.1932563285504268e-04  -3.6727119268881647e-04  -1.2358894414355245e-04  5.0555043471359434e-04  1.4374734118721740e-03  2.5511017346981635e-03  3.6991224922714489e-03  4.6289927265159144e-03  4.6460713119959160e-03  2.2209460213205808e-03  -2.5064057231911074e-03  1.3171127321545999e-02  1.9398772127960207e-01  1.1814136222320486e+00  5.6974261315096140e+00  0.0000000000000000e+00  8.0612977982742664e-03  2.2890315736684878e-02  3.3850404488556418e-02  3.1494476472937107e-02  1.9624655393085590e-02  7.2281162307527127e-03  -1.5212867035481015e-04  -2.2526528413383592e-03  -1.5071303967031343e-03  -2.5573786714957119e-04  3.9722785374787215e-04  3.9505625430144342e-04  1.0836942806784740e-04  -1.2566875086174109e-04  -1.7281964682037666e-04  -7.5252834085314980e-05  4.1864529419916466e-05  5.2753323196500976e-05  -1.2303114553794290e-04  -5.0700657775883790e-04  -1.0657301928313676e-03  -1.7117044627012106e-03  -2.3048314811748767e-03  -2.7563574060013528e-03  -3.8324048273643899e-03  -8.3679092247172359e-03  -1.3154779116063529e-02  6.5728121883627491e-02  7.7116187591763874e-01  4.8055719101676475e+00  0.0000000000000000e+00  7.0505216252062181e-03  1.8280020661680149e-02  2.4386499929842535e-02  1.9387666749633846e-02  9.1448806256336120e-03  1.3629565955739021e-03  -1.4582974463250131e-03  -1.1360953282851826e-03  -1.6363190243021911e-04  2.7518775881374473e-04  1.9622016729136096e-04  -5.2054070414217510e-06  -8.8454352567527179e-05  -4.6921738286191032e-05  2.3375265252490768e-05  4.9378323449501043e-05  2.5905184528347230e-05  -1.3279135562594213e-07  3.3984267819839275e-05  1.7619549800746830e-04  4.4331070107420876e-04  8.1546328719516554e-04  1.2711732414995599e-03  1.8469556028630465e-03  2.5350008306569594e-03  1.1427900656217672e-03  -7.7141838511579934e-03  1.3258362775810726e-02  4.9015260873347211e-01  4.0227631168707694e+00  0.0000000000000000e+00  5.9685255671057874e-03  1.4198248018686790e-02  1.7174839934702067e-02  1.1668074266807679e-02  3.9384712589287550e-03  -3.9332748013940139e-04  -1.0288395704698286e-03  -3.0080891105742390e-04  1.6049909262922160e-04  1.3958851420229932e-04  -5.8608207404649814e-06  -5.1728989088717549e-05  -1.4930902438229422e-05  1.8552356252584949e-05  1.4380341592456233e-05  -7.0270043709517467e-06  -1.7210719526283278e-05  -1.2154316561894764e-05  -1.5040367525400980e-05  -6.0946256943123396e-05  -1.7973482144599822e-04  -3.8347720504640749e-04  -6.8520636781038322e-04  -1.0142725357114182e-03  -1.1404953434960862e-03  -1.2550963772795579e-03  -8.0198537285709956e-03  -1.4184260625930494e-02  2.9071461683423916e-01  3.3397265971080516e+00  0.0000000000000000e+00  4.9156440616445248e-03  1.0794707177568376e-02  1.1935490323737115e-02  6.9759751408346900e-03  1.5577202559894027e-03  -6.6209091715947787e-04  -5.1366386506069379e-04  1.0395141903858025e-05  1.2301437226347700e-04  1.9816612608050623e-05  -3.2815636770500420e-05  -1.1425751387099240e-05  1.0530291320501887e-05  6.3734530014475063e-06  -4.1878492564289365e-06  -3.9622206053736737e-06  3.4434873205551974e-06  7.7202216834663842e-06  8.9891429931168775e-06  2.1942971946243227e-05  6.9977103184238739e-05  1.7113605859647138e-04  3.4470614584615516e-04  5.1673269099531186e-04  8.5945188591866081e-04  1.5961258078153948e-03  -7.7494906373636301e-04  -1.7623246612217182e-02  1.6362996527937954e-01  2.7476013365690664e+00  0.0000000000000000e+00  3.9528872683425482e-03  8.0698290691143277e-03  8.2425401824033004e-03  4.2075810037845796e-03  5.5383799037098265e-04  -5.2779023404707966e-04  -2.1509914078968057e-04  6.9510237767801477e-05  5.2928949893366803e-05  -1.3559774055126325e-05  -1.4556071406634885e-05  4.1362172397588821e-06  4.8455459742898925e-06  -1.8142565492743385e-06  -2.0736725802423922e-06  1.0680093447378762e-06  8.7102144916087749e-07  -2.1770812948380400e-06  -4.6321191964848373e-06  -8.6033978121487811e-06  -2.6488343143571803e-05  -6.9975393437858674e-05  -1.6461944182144639e-04  -2.7779146763820485e-04  -5.8286631120398557e-04  -2.2892444591859473e-04  -9.6650504304785141e-04  -1.7463575648513103e-02  7.3660229193691446e-02  2.2379384611438566e+00  0.0000000000000000e+00  3.1109556227009055e-03  5.9498357257605035e-03  5.6855121948072799e-03  2.5976679078549385e-03  1.6976606671415835e-04  -3.5335195746097065e-04  -8.1754658776828272e-05  5.5772431430314123e-05  1.6587664628313752e-05  -1.2720837867159649e-05  -2.9702928517419562e-06  3.8524584658834735e-06  2.6877841321704691e-07  -1.3990308245063269e-06  2.3783345018242655e-07  6.0284870796083431e-07  -2.8467536274332090e-07  2.9013439157301441e-08  1.6029332235955479e-06  3.3906949747926680e-06  1.0281125752863303e-05  2.4726510831574395e-05  7.9150389701532464e-05  1.3483769515995392e-04  2.7947780364269854e-04  3.5557210705470783e-04  1.8897468618159202e-03  -1.1734326911818161e-02  2.3038069953975761e-02  1.8027012369229636e+00  0.0000000000000000e+00  2.3994433356276457e-03  4.3341199409743731e-03  3.9297660930933476e-03  1.6614382255419635e-03  4.4434569611193704e-05  -2.2469489937457796e-04  -3.1941663178747613e-05  3.4599471202463419e-05  4.1197273136632903e-06  -7.0709774045498459e-06  2.2629546467646377e-07  1.6430325139640919e-06  -5.0624679377677393e-07  -3.2787197365042865e-07  3.0640387077216429e-07  -1.5114841480708498e-08  -1.5422930051731264e-07  5.5331043634950970e-08  -3.2431302077747981e-07  -1.0082167502530241e-06  -4.4659298513575638e-06  -6.1857644691037894e-06  -4.0528011114658458e-05  -4.1111317565306516e-05  -1.9666318143205641e-04  -2.3657249764051034e-04  5.7602977869914774e-04  -7.1956878496663261e-03  -1.1274388242505736e-02  1.4342650701974053e+00  0.0000000000000000e+00  1.8145968185693231e-03  3.1213594411256011e-03  2.7254954140679376e-03  1.1087074188510927e-03  1.8060682778545941e-05  -1.4285969482298372e-04  -1.6593724864085451e-05  2.0051655225422694e-05  1.3184569486143533e-06  -3.4878658531136750e-06  4.1079079460291848e-07  5.8114879518777631e-07  -2.7524477394522823e-07  -2.5830501629649099e-08  8.7351337960327128e-08  -4.7071005554941064e-08  3.9069844759653341e-09  2.4509770843571572e-08  9.7938001555442362e-08  -4.4631012280120752e-09  2.4303845053078686e-06  -7.5479957516005461e-07  2.2372209895738894e-05  8.9878304145953525e-07  1.4419558558625517e-04  -1.0623263975995009e-04  1.1897699921871604e-03  -2.7880412635558536e-03  -2.5732026024080191e-02  1.1254175074586890e+00  0.0000000000000000e+00  1.3451475772421075e-03  2.2216901639820130e-03  1.8958173078559787e-03  7.7205304855666236e-04  2.4575799727287557e-05  -9.2279933134630047e-05  -1.3334444417601903e-05  1.1424134062795446e-05  1.2719750066144972e-06  -1.7213755910438941e-06  9.5260424201040739e-08  2.2951493259743179e-07  -8.1160850343171289e-08  -1.3955275226870370e-09  1.3423156576266581e-08  -9.2670655127778896e-09  2.8599697154179500e-09  1.3518165451439345e-08  -1.1125872134308868e-07  3.8829286124403638e-07  -1.9221011972207649e-06  3.5591102232206007e-06  -1.5100333035286524e-05  1.2026955131411997e-05  -6.8449126938993396e-05  -4.9066735230076413e-05  2.4827429804579803e-05  1.6063436680060144e-04  -3.3717325714708660e-02  8.6935823539880575e-01  0.0000000000000000e+00  9.7633980354361826e-04  1.5607678733366357e-03  1.3195683456679560e-03  5.5713093720545612e-04  3.8436443372623164e-05  -5.9690969307858634e-05  -1.3371865544116426e-05  6.0844758338655210e-06  1.6077635047849046e-06  -7.8214335072821658e-07  -1.1610917549307819e-07  9.2963002929098982e-08  -5.0826224091194730e-09  -3.1106089106295516e-09  -2.3088824290942190e-10  3.9435300660265031e-09  -1.1478856259055263e-08  1.7804486859842939e-08  2.3811447453047951e-08  -2.6613942823315727e-07  1.2476157970180775e-06  -3.2549506510453633e-06  9.9882239092651033e-06  -1.4890615106154508e-05  4.8264782488164681e-05  -2.5756221147003330e-05  6.1860167702025505e-05  1.9136549826766060e-03  -3.2973068400827719e-02  6.5969908091023255e-01  0.0000000000000000e+00  6.9250786991445100e-04  1.0796422833448853e-03  9.1543467875679417e-04  4.1157737825232751e-04  5.0454357363554630e-05  -3.6912391743324799e-05  -1.3499498561828947e-05  2.3369398486014812e-06  1.6561645241634451e-06  -1.6649453152775312e-07  -1.6309025879614903e-07  9.3666954747192505e-09  9.4551238515817181e-09  8.8211806704973817e-10  -2.9502777027468099e-09  9.9409037523791065e-09  -3.0287072613259518e-08  9.5323558458501302e-08  -3.0552776490929103e-07  9.2826955956212291e-07  -2.5783761129532377e-06  6.2895447063568548e-06  -1.4675473133706441e-05  2.8965471500313220e-05  -6.6818995899516035e-05  1.2965820962088337e-04  -5.0749891951143704e-04  2.8333639340513807e-03  -3.0377782612849055e-02  4.9046401108593174e-01  0.0000000000000000e+00  4.7859450732538216e-04  7.3280450053408519e-04  6.2945345777380940e-04  3.0667138213376924e-04  5.7634220343749151e-05  -1.9716295408110993e-05  -1.2555726602299779e-05  -4.9935653842996899e-07  1.2529310541536788e-06  2.3935858310847341e-07  -7.8968452002598811e-08  -3.1233368702433224e-08  -1.1470807663652851e-09  8.8368377333494370e-10  -2.2749896222145827e-09  9.2386029435325619e-09  -2.4968251427055953e-08  4.6980711551640741e-08  -4.3307835371323577e-08  -8.1310539614391313e-08  4.9236956635630290e-07  -1.2723946192713870e-06  2.0535112952457445e-06  5.5437100667411562e-07  -1.4832510742701561e-05  9.6270437323531973e-05  -4.4873201676890351e-04  2.8899354263193259e-03  -2.4941923623866734e-02  3.5608913321935087e-01  0.0000000000000000e+00  3.2094794729242460e-04  4.8569573186474022e-04  4.2592701903685921e-04  2.2689795296226478e-04  5.9279946029229644e-05  -6.3732901419656914e-06  -1.0207865933638143e-05  -2.4647569890387808e-06  4.4793029685012946e-07  3.7402800336231038e-07  5.7854559357503145e-08  -1.4016584784944268e-08  -7.8349966487298643e-09  -2.8424366194517147e-09  -2.0521184359617212e-10  2.4871547455121484e-09  -1.9584195969919254e-08  8.8132023600279917e-08  -3.1515366996189732e-07  9.4675091807928951e-07  -2.4718896447803673e-06  5.7961819039246506e-06  -1.2709894160118713e-05  2.7231503460016977e-05  -6.2464910418383399e-05  1.6236150830791835e-04  -5.6320326625487174e-04  2.6634352443499387e-03  -1.9709970794240209e-02  2.5142269480442309e-01  0.0000000000000000e+00  2.0765780804780077e-04  3.1230573161703597e-04  2.8111600835483157e-04  1.6409500495322219e-04  5.5706422740564469e-05  3.4596825132051637e-06  -6.6783524179929326e-06  -3.3409436793043603e-06  -5.0517721949834876e-07  1.8625784071940094e-07  1.2559540999658790e-07  3.4730464892780002e-08  5.4803533207071186e-09  -9.8257574426282812e-11  1.6022984985989329e-09  -2.9823865244372084e-09  9.0399834303065211e-09  -3.2588655666178219e-08  1.1050574686109886e-07  -2.9473361935810329e-07  5.9613595792662089e-07  -7.8049444510231337e-07  -1.8045359191676783e-07  5.7096339866051362e-06  -2.6799188568649284e-05  1.0533850785643417e-04  -4.2387573412827780e-04  2.0960803901008498e-03  -1.4357439723733172e-02  1.7172508353556665e-01  0.0000000000000000e+00  1.2861476361543004e-04  1.9311771607305675e-04  1.7898481734368826e-04  1.1414026640928992e-04  4.7903824828879391e-05  9.5863006570335249e-06  -2.6873393173738235e-06  -3.0257454135347929e-06  -1.2100626871321345e-06  -2.2201532585305840e-07  3.2504448702851629e-08  4.2961288912659785e-08  2.0451689000569018e-08  8.8288482412676789e-09  4.0246323600237142e-09  6.5614676386071930e-10  -4.3818938072967645e-09  4.3559825751818068e-08  -1.7516123101823006e-07  5.2549014261223532e-07  -1.3191605974338593e-06  2.9746031549434499e-06  -6.4439353084377043e-06  1.4355321672948990e-05  -3.5221032224706363e-05  1.0018916343031941e-04  -3.4807016623920347e-04  1.5530411082909337e-03  -9.9479197710890237e-03  1.1266882730768529e-01  0.0000000000000000e+00  7.5418139976152240e-05  1.1346427611011861e-04  1.0838923091402639e-04  7.5007110634784098e-05  3.7418506080500931e-05  1.1947288484900078e-05  7.5061021466634150e-07  -1.8141612847247585e-06  -1.3522314812350450e-06  -5.9137633640883410e-07  -1.8439263937446632e-07  -3.8971230283415609e-08  -3.3502324984176265e-09  3.2336837127795234e-09  8.0982103715409511e-10  -6.1342636544522341e-10  1.3996785947557632e-08  -6.0058301915848274e-08  1.7156205992400065e-07  -3.9584819590540554e-07  7.2686226597842956e-07  -1.0306016899997913e-06  7.4349148763198165e-07  1.8966077369376133e-06  -1.2684578613630502e-05  5.2921207395596326e-05  -2.1484227250431978e-04  1.0071030576311243e-03  -6.3433641942848423e-03  7.0338594216168115e-02  0.0000000000000000e+00  4.1211303196482416e-05  6.2269948529697301e-05  6.1255456588274251e-05  4.5567858655074742e-05  2.6137960098384110e-05  1.1069604749702652e-05  2.7606147418133048e-06  -3.9257938887011247e-07  -9.5581031873083567e-07  -6.9139435257027860e-07  -3.7148050533169627e-07  -1.7141717938027919e-07  -7.7035195553126021e-08  -3.4773441974220610e-08  -1.9062240199068359e-08  -6.7376211606853344e-09  -2.4200493566894174e-08  4.7085193456289832e-08  -1.3719585601429703e-07  2.7967264328961281e-07  -5.3398932135184934e-07  9.3536492308821604e-07  -1.7211152591104424e-06  3.7280784223565969e-06  -1.0136768949859994e-05  3.3334538760968052e-05  -1.2831724453626342e-04  5.9587481619435227e-04  -3.7299036524862834e-03  4.1231192556889500e-02  0.0000000000000000e+00  2.0492753159106143e-05  3.1122429242161676e-05  3.1437476591243850e-05  2.4850359437213020e-05  1.5906473256880587e-05  8.1457594932593373e-06  3.0752529592917018e-06  5.2732762964882266e-07  -3.9358583309775601e-07  -5.2892668989227210e-07  -4.1207586632494937e-07  -2.6255808581044470e-07  -1.5885947958278461e-07  -9.1175205397946240e-08  -5.5518724603382961e-08  -3.7303979057710781e-08  -7.6325010586553898e-09  -6.0129403352789700e-08  1.0028555868673434e-07  -2.3317971750682331e-07  3.9725604063067117e-07  -6.2701069813298941e-07  8.0755149795983024e-07  -6.0569235125355219e-07  -1.4229479655526223e-06  1.1312788802327473e-05  -5.7208106388991562e-05  2.9719858985697753e-04  -1.9471920500038283e-03  2.2255570826209409e-02  0.0000000000000000e+00  8.9315885986138572e-06  1.3608463369571953e-05  1.4040712265378277e-05  1.1630714518851342e-05  8.0690018780764909e-06  4.6899057719821326e-06  2.1854054366227362e-06  6.7472541908503804e-07  -6.0777652096501019e-08  -3.1309910186293682e-07  -3.3765398046138424e-07  -2.6985668369012951e-07  -1.9879623077573267e-07  -1.3170246610032946e-07  -9.1585579527246780e-08  -5.3040799996018172e-08  -5.5274810941337787e-08  1.7511307596159264e-08  -1.0794305524508390e-07  1.5355578743138893e-07  -2.5695797652526838e-07  3.2092192068976039e-07  -3.5645656836984063e-07  3.5912322056938135e-07  -7.1203556418906365e-07  3.5565893312643305e-06  -2.0440904059029259e-05  1.2126580199423536e-04  -8.6915724530758724e-04  1.0732817720972902e-02  0.0000000000000000e+00  3.2007239125118019e-06  4.8552400801643822e-06  5.0649923532279470e-06  4.3152578632145671e-06  3.1388118018418756e-06  1.9512535207263818e-06  9.9153535198548617e-07  3.4008062806377905e-07  -3.3535306379736147e-08  -1.9937145057598260e-07  -2.458374642401984