<?xml version="1.0"?>
<VTKFile type="UnstructuredGrid"  version="0.1"  >
<UnstructuredGrid>
<Piece  NumberOfPoints="961" NumberOfCells="1800">
<Points>
<DataArray  type="Float64"  NumberOfComponents="3"  format="ascii">-1 -1 0  -0.9333333333333333 -1 0  -0.8666666666666667 -1 0  -0.8 -1 0  -0.7333333333333334 -1 0  -0.6666666666666667 -1 0  -0.6 -1 0  -0.5333333333333333 -1 0  -0.4666666666666667 -1 0  -0.4 -1 0  -0.3333333333333334 -1 0  -0.2666666666666667 -1 0  -0.2 -1 0  -0.1333333333333333 -1 0  -0.06666666666666665 -1 0  0 -1 0  0.06666666666666665 -1 0  0.1333333333333333 -1 0  0.2 -1 0  0.2666666666666666 -1 0  0.3333333333333333 -1 0  0.3999999999999999 -1 0  0.4666666666666666 -1 0  0.5333333333333334 -1 0  0.6000000000000001 -1 0  0.6666666666666667 -1 0  0.7333333333333334 -1 0  0.8 -1 0  0.8666666666666667 -1 0  0.9333333333333333 -1 0  1 -1 0  -1 -0.9333333333333333 0  -0.9333333333333333 -0.9333333333333333 0  -0.8666666666666667 -0.9333333333333333 0  -0.8 -0.9333333333333333 0  -0.7333333333333334 -0.9333333333333333 0  -0.6666666666666667 -0.9333333333333333 0  -0.6 -0.9333333333333333 0  -0.5333333333333333 -0.9333333333333333 0  -0.4666666666666667 -0.9333333333333333 0  -0.4 -0.9333333333333333 0  -0.3333333333333334 -0.9333333333333333 0  -0.2666666666666667 -0.9333333333333333 0  -0.2 -0.9333333333333333 0  -0.1333333333333333 -0.9333333333333333 0  -0.06666666666666665 -0.9333333333333333 0  0 -0.9333333333333333 0  0.06666666666666665 -0.9333333333333333 0  0.1333333333333333 -0.9333333333333333 0  0.2 -0.9333333333333333 0  0.2666666666666666 -0.9333333333333333 0  0.3333333333333333 -0.9333333333333333 0  0.3999999999999999 -0.9333333333333333 0  0.4666666666666666 -0.9333333333333333 0  0.5333333333333334 -0.9333333333333333 0  0.6000000000000001 -0.9333333333333333 0  0.6666666666666667 -0.9333333333333333 0  0.7333333333333334 -0.9333333333333333 0  0.8 -0.9333333333333333 0  0.8666666666666667 -0.9333333333333333 0  0.9333333333333333 -0.9333333333333333 0  1 -0.9333333333333333 0  -1 -0.8666666666666667 0  -0.9333333333333333 -0.8666666666666667 0  -0.8666666666666667 -0.8666666666666667 0  -0.8 -0.8666666666666667 0  -0.7333333333333334 -0.8666666666666667 0  -0.6666666666666667 -0.8666666666666667 0  -0.6 -0.8666666666666667 0  -0.5333333333333333 -0.8666666666666667 0  -0.4666666666666667 -0.8666666666666667 0  -0.4 -0.8666666666666667 0  -0.3333333333333334 -0.8666666666666667 0  -0.2666666666666667 -0.8666666666666667 0  -0.2 -0.8666666666666667 0  -0.1333333333333333 -0.8666666666666667 0  -0.06666666666666665 -0.8666666666666667 0  0 -0.8666666666666667 0  0.06666666666666665 -0.8666666666666667 0  0.1333333333333333 -0.8666666666666667 0  0.2 -0.8666666666666667 0  0.2666666666666666 -0.8666666666666667 0  0.3333333333333333 -0.8666666666666667 0  0.3999999999999999 -0.8666666666666667 0  0.4666666666666666 -0.8666666666666667 0  0.5333333333333334 -0.8666666666666667 0  0.6000000000000001 -0.8666666666666667 0  0.6666666666666667 -0.8666666666666667 0  0.7333333333333334 -0.8666666666666667 0  0.8 -0.8666666666666667 0  0.8666666666666667 -0.8666666666666667 0  0.9333333333333333 -0.8666666666666667 0  1 -0.8666666666666667 0  -1 -0.8 0  -0.9333333333333333 -0.8 0  -0.8666666666666667 -0.8 0  -0.8 -0.8 0  -0.7333333333333334 -0.8 0  -0.6666666666666667 -0.8 0  -0.6 -0.8 0  -0.5333333333333333 -0.8 0  -0.4666666666666667 -0.8 0  -0.4 -0.8 0  -0.3333333333333334 -0.8 0  -0.2666666666666667 -0.8 0  -0.2 -0.8 0  -0.1333333333333333 -0.8 0  -0.06666666666666665 -0.8 0  0 -0.8 0  0.06666666666666665 -0.8 0  0.1333333333333333 -0.8 0  0.2 -0.8 0  0.2666666666666666 -0.8 0  0.3333333333333333 -0.8 0  0.3999999999999999 -0.8 0  0.4666666666666666 -0.8 0  0.5333333333333334 -0.8 0  0.6000000000000001 -0.8 0  0.6666666666666667 -0.8 0  0.7333333333333334 -0.8 0  0.8 -0.8 0  0.8666666666666667 -0.8 0  0.9333333333333333 -0.8 0  1 -0.8 0  -1 -0.7333333333333334 0  -0.9333333333333333 -0.7333333333333334 0  -0.8666666666666667 -0.7333333333333334 0  -0.8 -0.7333333333333334 0  -0.7333333333333334 -0.7333333333333334 0  -0.6666666666666667 -0.7333333333333334 0  -0.6 -0.7333333333333334 0  -0.5333333333333333 -0.7333333333333334 0  -0.4666666666666667 -0.7333333333333334 0  -0.4 -0.7333333333333334 0  -0.3333333333333334 -0.7333333333333334 0  -0.2666666666666667 -0.7333333333333334 0  -0.2 -0.7333333333333334 0  -0.1333333333333333 -0.7333333333333334 0  -0.06666666666666665 -0.7333333333333334 0  0 -0.7333333333333334 0  0.06666666666666665 -0.7333333333333334 0  0.1333333333333333 -0.7333333333333334 0  0.2 -0.7333333333333334 0  0.2666666666666666 -0.7333333333333334 0  0.3333333333333333 -0.7333333333333334 0  0.3999999999999999 -0.7333333333333334 0  0.4666666666666666 -0.7333333333333334 0  0.5333333333333334 -0.7333333333333334 0  0.6000000000000001 -0.7333333333333334 0  0.6666666666666667 -0.7333333333333334 0  0.7333333333333334 -0.7333333333333334 0  0.8 -0.7333333333333334 0  0.8666666666666667 -0.7333333333333334 0  0.9333333333333333 -0.7333333333333334 0  1 -0.7333333333333334 0  -1 -0.6666666666666667 0  -0.9333333333333333 -0.6666666666666667 0  -0.8666666666666667 -0.6666666666666667 0  -0.8 -0.6666666666666667 0  -0.7333333333333334 -0.6666666666666667 0  -0.6666666666666667 -0.6666666666666667 0  -0.6 -0.6666666666666667 0  -0.5333333333333333 -0.6666666666666667 0  -0.4666666666666667 -0.6666666666666667 0  -0.4 -0.6666666666666667 0  -0.3333333333333334 -0.6666666666666667 0  -0.2666666666666667 -0.6666666666666667 0  -0.2 -0.6666666666666667 0  -0.1333333333333333 -0.6666666666666667 0  -0.06666666666666665 -0.6666666666666667 0  0 -0.6666666666666667 0  0.06666666666666665 -0.6666666666666667 0  0.1333333333333333 -0.6666666666666667 0  0.2 -0.6666666666666667 0  0.2666666666666666 -0.6666666666666667 0  0.3333333333333333 -0.6666666666666667 0  0.3999999999999999 -0.6666666666666667 0  0.4666666666666666 -0.6666666666666667 0  0.5333333333333334 -0.6666666666666667 0  0.6000000000000001 -0.6666666666666667 0  0.6666666666666667 -0.6666666666666667 0  0.7333333333333334 -0.6666666666666667 0  0.8 -0.6666666666666667 0  0.8666666666666667 -0.6666666666666667 0  0.9333333333333333 -0.6666666666666667 0  1 -0.6666666666666667 0  -1 -0.6 0  -0.9333333333333333 -0.6 0  -0.8666666666666667 -0.6 0  -0.8 -0.6 0  -0.7333333333333334 -0.6 0  -0.6666666666666667 -0.6 0  -0.6 -0.6 0  -0.5333333333333333 -0.6 0  -0.4666666666666667 -0.6 0  -0.4 -0.6 0  -0.3333333333333334 -0.6 0  -0.2666666666666667 -0.6 0  -0.2 -0.6 0  -0.1333333333333333 -0.6 0  -0.06666666666666665 -0.6 0  0 -0.6 0  0.06666666666666665 -0.6 0  0.1333333333333333 -0.6 0  0.2 -0.6 0  0.2666666666666666 -0.6 0  0.3333333333333333 -0.6 0  0.3999999999999999 -0.6 0  0.4666666666666666 -0.6 0  0.5333333333333334 -0.6 0  0.6000000000000001 -0.6 0  0.6666666666666667 -0.6 0  0.7333333333333334 -0.6 0  0.8 -0.6 0  0.8666666666666667 -0.6 0  0.9333333333333333 -0.6 0  1 -0.6 0  -1 -0.5333333333333333 0  -0.9333333333333333 -0.5333333333333333 0  -0.8666666666666667 -0.5333333333333333 0  -0.8 -0.5333333333333333 0  -0.7333333333333334 -0.5333333333333333 0  -0.6666666666666667 -0.5333333333333333 0  -0.6 -0.5333333333333333 0  -0.5333333333333333 -0.5333333333333333 0  -0.4666666666666667 -0.5333333333333333 0  -0.4 -0.5333333333333333 0  -0.3333333333333334 -0.5333333333333333 0  -0.2666666666666667 -0.5333333333333333 0  -0.2 -0.5333333333333333 0  -0.1333333333333333 -0.5333333333333333 0  -0.06666666666666665 -0.5333333333333333 0  0 -0.5333333333333333 0  0.06666666666666665 -0.5333333333333333 0  0.1333333333333333 -0.5333333333333333 0  0.2 -0.5333333333333333 0  0.2666666666666666 -0.5333333333333333 0  0.3333333333333333 -0.5333333333333333 0  0.3999999999999999 -0.5333333333333333 0  0.4666666666666666 -0.5333333333333333 0  0.5333333333333334 -0.5333333333333333 0  0.6000000000000001 -0.5333333333333333 0  0.6666666666666667 -0.5333333333333333 0  0.7333333333333334 -0.5333333333333333 0  0.8 -0.5333333333333333 0  0.8666666666666667 -0.5333333333333333 0  0.9333333333333333 -0.5333333333333333 0  1 -0.5333333333333333 0  -1 -0.4666666666666667 0  -0.9333333333333333 -0.4666666666666667 0  -0.8666666666666667 -0.4666666666666667 0  -0.8 -0.4666666666666667 0  -0.7333333333333334 -0.4666666666666667 0  -0.6666666666666667 -0.4666666666666667 0  -0.6 -0.4666666666666667 0  -0.5333333333333333 -0.4666666666666667 0  -0.4666666666666667 -0.4666666666666667 0  -0.4 -0.4666666666666667 0  -0.3333333333333334 -0.4666666666666667 0  -0.2666666666666667 -0.4666666666666667 0  -0.2 -0.4666666666666667 0  -0.1333333333333333 -0.4666666666666667 0  -0.06666666666666665 -0.4666666666666667 0  0 -0.4666666666666667 0  0.06666666666666665 -0.4666666666666667 0  0.1333333333333333 -0.4666666666666667 0  0.2 -0.4666666666666667 0  0.2666666666666666 -0.4666666666666667 0  0.3333333333333333 -0.4666666666666667 0  0.3999999999999999 -0.4666666666666667 0  0.4666666666666666 -0.4666666666666667 0  0.5333333333333334 -0.4666666666666667 0  0.6000000000000001 -0.4666666666666667 0  0.6666666666666667 -0.4666666666666667 0  0.7333333333333334 -0.4666666666666667 0  0.8 -0.4666666666666667 0  0.8666666666666667 -0.4666666666666667 0  0.9333333333333333 -0.4666666666666667 0  1 -0.4666666666666667 0  -1 -0.4 0  -0.9333333333333333 -0.4 0  -0.8666666666666667 -0.4 0  -0.8 -0.4 0  -0.7333333333333334 -0.4 0  -0.6666666666666667 -0.4 0  -0.6 -0.4 0  -0.5333333333333333 -0.4 0  -0.4666666666666667 -0.4 0  -0.4 -0.4 0  -0.3333333333333334 -0.4 0  -0.2666666666666667 -0.4 0  -0.2 -0.4 0  -0.1333333333333333 -0.4 0  -0.06666666666666665 -0.4 0  0 -0.4 0  0.06666666666666665 -0.4 0  0.1333333333333333 -0.4 0  0.2 -0.4 0  0.2666666666666666 -0.4 0  0.3333333333333333 -0.4 0  0.3999999999999999 -0.4 0  0.4666666666666666 -0.4 0  0.5333333333333334 -0.4 0  0.6000000000000001 -0.4 0  0.6666666666666667 -0.4 0  0.7333333333333334 -0.4 0 
[...]
<PointData  Scalars="f_24"> 
<DataArray  type="Float64"  Name="f_24"  format="ascii">0.0000000000000000e+00  0.0000000000000000e+00  0.0000000000000000e+00  0.0000000000000000e+00  0.0000000000000000e+00  0.0000000000000000e+00  0.0000000000000000e+00  0.0000000000000000e+00  0.0000000000000000e+00  0.0000000000000000e+00  0.0000000000000000e+00  0.0000000000000000e+00  0.0000000000000000e+00  0.0000000000000000e+00  0.0000000000000000e+00  0.0000000000000000e+00  0.0000000000000000e+00  0.0000000000000000e+00  0.0000000000000000e+00  0.0000000000000000e+00  0.0000000000000000e+00  0.0000000000000000e+00  0.0000000000000000e+00  0.0000000000000000e+00  0.0000000000000000e+00  0.0000000000000000e+00  0.0000000000000000e+00  0.0000000000000000e+00  0.0000000000000000e+00  0.0000000000000000e+00  1.5840797339986690e+01  0.0000000000000000e+00  1.5217709381300550e-14  -2.1412823793808628e-13  -2.5762738272803541e-12  -1.4513956537108561e-11  -5.8313789536687628e-11  -1.9138039734620314e-10  -5.4882185575468409e-10  -1.4313022977936838e-09  -3.4850868004448373e-09  -8.0713719122596598e-09  -1.8028906509451025e-08  -3.9266506497913851e-08  -8.4140107284145013e-08  -1.7875343738391761e-07  -3.7910965499863218e-07  -8.0782041369209056e-07  -1.7401580697589033e-06  -3.8129828775545726e-06  -8.5524595309317314e-06  -1.9767486782378731e-05  -4.7417602424827637e-05  -1.1897938286851387e-04  -3.1514974385463682e-04  -8.9140562164894256e-04  -2.7359500641388149e-03  -9.3370661548695597e-03  -3.6816316025806615e-02  -1.7409583691220615e-01  1.3807952547327236e+00  1.3831969115337193e+01  0.0000000000000000e+00  -9.2970662981376758e-16  -3.7800132489625786e-13  -3.1402022190438448e-12  -1.4753882831259604e-11  -5.1017450291914355e-11  -1.4471941537101467e-10  -3.5703844141867588e-10  -7.9374674926877510e-10  -1.6267444845852743e-09  -3.1191126160245262e-09  -5.6448844575559820e-09  -9.6764388742043041e-09  -1.5667632488550807e-08  -2.3656281975314559e-08  -3.2177828434571038e-08  -3.5608801042490439e-08  -1.8266893101796707e-08  5.6859971223598594e-08  2.6170877230637904e-07  6.7563212553709682e-07  1.0481823391451009e-06  -1.2635745166847820e-06  -2.2252356126912427e-05  -1.4795605261221702e-04  -8.3754198097991993e-04  -4.6877597283705675e-03  -2.8363510618094681e-02  -2.0245093255723037e-01  7.8032520748429468e-01  1.2020544604699825e+01  0.0000000000000000e+00  -1.2132887351719643e-14  -3.4939425028487105e-13  -2.2865305138261739e-12  -8.9319952497441976e-12  -2.5579785653342066e-11  -5.8734141856732357e-11  -1.1273027291557565e-10  -1.8224069898830447e-10  -2.3754156783720922e-10  -1.9651332698743251e-10  1.2870256590499332e-10  1.1358269249955678e-09  3.6444357117304809e-09  9.3536302298220268e-09  2.1903642631336954e-08  4.9539343702452170e-08  1.1232853900133620e-07  2.6312045160731933e-07  6.5190839737515579e-07  1.7311873913413591e-06  4.9184557665201861e-06  1.4656542967134261e-05  4.3940317741704790e-05  1.2148765791239172e-04  2.2481407409438156e-04  -7.1282366797953140e-04  -1.5627022707452806e-02  -1.9801343678943079e-01  4.6338842234189170e-01  1.0393147134765268e+01  0.0000000000000000e+00  -1.5125004112702520e-14  -2.4741504222352071e-13  -1.3065410053193515e-12  -4.1609751870634493e-12  -9.3881937218868730e-12  -1.5771541899936028e-11  -1.8651934761005162e-11  -8.6855191531786558e-12  2.8089683562995033e-11  1.0738221480571796e-10  2.3800580861029220e-10  4.0099680669737110e-10  5.0160887808824267e-10  2.5854832279548424e-10  -1.0577136922650502e-09  -5.2587720665136934e-09  -1.6784031601530807e-08  -4.6296884174629385e-08  -1.1731698764100968e-07  -2.6473141516538801e-07  -4.0861311194346703e-07  6.9585769706560000e-07  1.1891362172459408e-05  8.1595475411801920e-05  4.1359783494736394e-04  1.3647114485723206e-03  -3.7612515968677750e-03  -1.7461208604978964e-01  2.1795057501203793e-01  8.9368693891824176e+00  0.0000000000000000e+00  -1.3220746641820894e-14  -1.5103244102183481e-13  -6.4773067976168710e-13  -1.6418752377271402e-12  -2.7152199663227544e-12  -2.6137081268190468e-12  4.0923623393532713e-13  7.4587101216030393e-12  1.7229149875609525e-11  2.3981325376770274e-11  1.5810944167660269e-11  -2.6019344335773976e-11  -1.2552486210811408e-10  -3.0687112225600321e-10  -5.8739708260774983e-10  -9.9426276710743974e-10  -1.7655086757723708e-09  -4.6087926748360559e-09  -1.9561575159041749e-08  -1.0021733380200500e-07  -5.0659354602803503e-07  -2.2613277794371557e-06  -7.3409201306275229e-06  -2.1286698612548674e-06  2.0174666276265353e-04  1.7633828309025876e-03  4.8573661661937793e-03  -1.4420386679378841e-01  4.9535847015640497e-02  7.6392734085583971e+00  0.0000000000000000e+00  -9.7459723130602286e-15  -8.4059858939670597e-14  -2.9333966621771782e-13  -5.7460614466715156e-13  -6.0662377028588643e-13  2.5564160017414179e-14  1.3827836945948519e-12  2.7631856170849078e-12  2.7355506170224569e-12  -1.3881166769733014e-13  -5.8710092571657792e-12  -1.1000162839505795e-11  -5.8976781783836487e-12  2.9606797835885235e-11  1.3756462333345936e-10  4.2343701284788261e-10  1.2268525408121637e-09  3.8401845470679748e-09  1.3466391239798778e-08  4.9192284051573791e-08  1.4358795767557141e-07  -5.0174621070662644e-08  -4.6046768783713989e-06  -3.1460063613480674e-05  -3.9269044201380741e-05  1.1943963712911403e-03  9.8718932962203448e-03  -1.1215082041679998e-01  -6.4036974392515156e-02  6.4883905904585495e+00  0.0000000000000000e+00  -6.4888107467267452e-15  -4.4046554372688993e-14  -1.2517018728899586e-13  -1.8207536941143154e-13  -7.9536954115791099e-14  2.2444989036043933e-13  5.3215601735613095e-13  4.8655955033496326e-13  -1.0762245664920779e-13  -9.4588127396415614e-13  -1.1802863103818971e-12  8.7779936606653327e-14  2.6347305569566281e-12  2.9873982225283312e-12  -9.9858944656686128e-12  -6.7540535379875483e-11  -2.6371609114179204e-10  -8.9862917431075431e-10  -2.7639301530952598e-09  -3.7957895307753172e-09  5.9198718718826155e-08  6.4897058917381094e-07  2.0381399127339282e-06  -1.4778688475889132e-05  -1.4884996879433959e-04  2.9914337223816123e-04  1.1852269178456755e-02  -8.2375278470201679e-02  -1.3525246764847090e-01  5.4727216894064377e+00  0.0000000000000000e+00  -4.0395688885199105e-15  -2.2172869911561415e-14  -5.1368352001403674e-14  -5.2252095045175293e-14  1.4320272373613626e-14  1.1176850622272023e-13  1.3179682422409988e-13  1.1197079456575777e-14  -1.6084461251266727e-13  -1.8635518601186043e-13  4.1586774562435286e-14  3.3570922440917352e-13  2.3075524304575401e-13  -5.7533155667942349e-13  -1.1256565729907419e-12  3.0942209687932146e-12  2.4304518925603803e-11  7.4752149500342689e-11  -1.3855109543875525e-10  -6.7500036101920732e-09  -6.7436417059183251e-08  -9.9937242354084608e-08  2.6417716815033014e-06  9.4649912416871638e-06  -1.2286681296986814e-04  -5.0102495528625503e-04  1.1629194072642521e-02  -5.6608720869087872e-02  -1.7510740446401321e-01  4.5812368168838562e+00  0.0000000000000000e+00  -2.3991375289660805e-15  -1.0869063311396121e-14  -2.0574429267136211e-14  -1.3189320494748385e-14  1.6894817969781056e-14  3.9833819979958231e-14  2.1419526026265766e-14  -2.4990438659765159e-14  -4.3172749132428407e-14  -2.0903345793739601e-15  5.2235241169011687e-14  3.6494921663482668e-14  -5.1927701699436217e-14  -4.9076703959695428e-14  3.1387058970797623e-13  1.2389693735093207e-12  4.0925990965146850e-12  2.9143058784951572e-11  4.2523420487633805e-10  6.3542518719722284e-09  1.4468373545560634e-08  -3.3917074158857950e-07  -5.7121131277698659e-07  1.7585727730594456e-05  -2.4049426189123526e-05  -1.0123435655187360e-03  1.0057775554316885e-02  -3.5601430268027028e-02  -1.9211296082603638e-01  3.8033754413308034e+00  0.0000000000000000e+00  -1.3780471988151202e-15  -5.2347544938300941e-15  -8.1339518442398521e-15  -2.6218740423490256e-15  9.0096301413764546e-15  1.2025458086479621e-14  4.5320007994555502e-16  -1.0801643262157686e-14  -5.8238945582484519e-15  8.1986596636687829e-15  8.8485850181713027e-15  -6.2246861617793788e-15  -1.4857072191238197e-14  2.9623203947635467e-15  -3.3425338940733002e-14  -4.1512773887031781e-13  -2.3976989077956764e-12  -1.6402628600236685e-11  -3.7789089043921813e-10  -3.7920194175401826e-09  3.5991917012610460e-08  1.1866169317617144e-07  -2.4202760554037289e-06  7.7521915976691179e-06  8.0119247937357111e-05  -1.2023401517907014e-03  7.8398167982946920e-03  -1.9358342485450587e-02  -1.9299709024328357e-01  3.1290463881455204e+00  0.0000000000000000e+00  -7.7112299662329573e-16  -2.4875140308051348e-15  -3.2159000949472880e-15  -1.7782165697753495e-16  3.9212651152134468e-15  3.2232857159711114e-15  -1.3034794884910102e-15  -3.2542265091180830e-15  7.3580306004802929e-16  1.6199419989506924e-15  1.8278934195192401e-15  -5.8466337486001807e-15  4.3814095316098880e-15  3.1966888026159591e-15  -3.1135316602962000e-14  2.3671595163492592e-13  9.0380233102949180e-14  1.9296351003946147e-12  4.4773514474580433e-10  -6.1328140435128291e-10  -3.9608113236862559e-08  3.5453690610336359e-07  -9.2403820202195906e-07  -9.5794167307848265e-06  1.4704066078846591e-04  -1.1316222780471707e-03  5.4928269909324031e-03  -7.4812991600316618e-03  -1.8301991217781363e-01  2.5486278396844506e+00  0.0000000000000000e+00  -4.1397616847307622e-16  -1.1839759564787120e-15  -1.2839495641859174e-15  2.4133756812091778e-16  1.4502166497006395e-15  9.8862865731407288e-16  -9.4713861984847155e-16  -6.9581551595990878e-16  1.5342117315827962e-15  -4.4832949856381832e-15  1.6714832580110964e-14  -5.3729964688073690e-14  1.5975382156604151e-13  -4.5830056731434000e-13  1.2844073515701783e-12  -3.3235114122082987e-12  7.1456414879497503e-12  2.5316255317522357e-13  -6.3366418215422282e-10  7.0531994003903832e-09  -3.0197284014484078e-08  -7.3417194732484649e-08  2.3226522655516537e-06  -2.3058662688640259e-05  1.6333771418050469e-04  -8.9651893116107447e-04  3.3517894291215811e-03  6.3975731481419763e-04  -1.6623699271990999e-01  2.0529673352622750e+00  0.0000000000000000e+00  -2.1571008545874282e-16  -5.9402061098596848e-16  -4.4045420485967424e-16  1.0003861398556480e-16  4.4814903747167434e-16  9.9663197683212494e-16  -2.7559339839110997e-15  6.0497067316646906e-15  -1.3301811648930852e-14  2.5279489299288922e-14  -3.5096228384906592e-14  -4.0692001727974433e-16  2.7535460084156294e-13  -1.5699738590867964e-12  6.8718541452448129e-12  -2.7562548913225824e-11  1.0582158737746855e-10  -3.9778683382356785e-10  1.8847209945554095e-09  -1.3329380923573826e-08  1.0347200232059999e-07  -7.3187254197523388e-07  4.6368094161932968e-06  -2.6596345989751265e-05  1.3680868274327620e-04  -5.9198116617470355e-04  1.5988242586788841e-03  5.6965600556780774e-03  -1.4573166033994739e-01  1.6333817711518868e+00  0.0000000000000000e+00  -1.3634457634224259e-16  -2.7338905729788004e-16  -5.1363685581130816e-17  -3.9548682242610082e-16  1.0307357230272875e-15  -1.6762423240311891e-16  -4.6870079861623068e-15  2.3379329595275857e-14  -8.2836800338323420e-14  2.5138102298316819e-13  -6.9418704862192973e-13  1.7824110710134936e-12  -4.2471759027903853e-12  9.0790939016515482e-12  -1.5206908586376646e-11  4.4349032140520435e-12  1.4320015222717137e-10  -1.1249040811598291e-09  6.7732260041476455e-09  -3.6886957679989323e-08  1.8900732415283596e-07  -9.2941039066029431e-07  4.4241466533447960e-06  -2.0225230420759452e-05  8.5406825785917865e-05  -2.9252238058114410e-04  3.0104056286827871e-04  8.3764428130382075e-03  -1.2379495700626300e-01  1.2816574005844046e+00  0.0000000000000000e+00  -9.9841418187323625e-17  -1.5378617730200631e-17  -1.5033487115770286e-16  -5.1587830938599921e-16  2.6250917643904384e-15  -6.1412783336980795e-15  6.4347876077537283e-15  2.3306976928888697e-14  -1.8462026675470890e-13  8.0904745999333489e-13  -2.8925809166117370e-12  9.2623917842399926e-12  -2.7596845940703182e-11  7.7909283129149970e-11  -2.0986459816283073e-10  5.3735008876372377e-10  -1.2816372849297260e-09  2.6940013900645509e-09  -4.1063027439627787e-09  -1.6376946782986116e-09  5.5849633211328182e-08  -3.6051704960850703e-07  1.8100587349273563e-06  -7.8800425301808024e-06  2.8034336538084543e-05  -4.5585034716829656e-05  -5.5365270751376911e-04  9.3123559772299979e-03  -1.0207792356473691e-01  9.9004983374916811e-01  0.0000000000000000e+00  -2.3471713418363333e-17  6.2636990648580081e-17  -5.0670202251094846e-16  6.4608605559302129e-16  1.6009985406975576e-15  -1.1690260348521374e-14  3.5898529746392039e-14  -5.3630121237525733e-14  -1.0416559800048287e-13  1.1880004671310687e-12  -5.9049443607050094e-12  2.2989950113130723e-11  -7.8704789510641161e-11  2.4825432459782719e-10  -7.3962607178812939e-10  2.1139330609928119e-09  -5.8595465119868432e-09  1.5877863773563772e-08  -4.2287176734244214e-08  1.1101168872050766e-07  -2.8759385603310926e-07  7.3739707683619231e-07  -1.9075151831150187e-06  5.4145988821844666e-06  -2.0860628027587072e-05  1.2682131880518258e-04  -1.0252869218692587e-03  9.0547886221074795e-03  -8.1716816422454971e-02  7.5128403779373909e-01  0.0000000000000000e+00  4.7793485770984975e-17  -1.1982338112090471e-16  -3.1415793356436208e-16  1.8048006064217868e-15  -3.6577745151030673e-15  -2.6026971305004664e-15  4.5088975702163598e-14  -1.6969922189308009e-13  3.2134193235577152e-13  2.8146070928417376e-13  -5.5268999047866993e-12  3.0202565746421959e-11  -1.2333392956522039e-10  4.3420219863123616e-10  -1.3923762204889920e-09  4.1880811526581741e-09  -1.2040958479110460e-08  3.3551078475256514e-08  -9.1636329798199291e-08  2.4784472259006205e-07  -6.7067160493843607e-07  1.8381155766906184e-06  -5.1964462420258783e-06  1.5658557035904377e-05  -5.3344883040998758e-05  2.2266813621614191e-04  -1.1974517831168643e-03  8.0596961422907433e-03  -6.3437305762307550e-02  5.5855433682390110e-01  0.0000000000000000e+00  1.5819939137055890e-17  -2.3449408407403955e-16  4.8329016566755774e-16  4.5550404018811381e-16  -5.9509398036401313e-15  1.6904149864086984e-14  -7.9343281565229039e-15  -1.3117583659563681e-13  6.4457929769024583e-13  -1.6027061922858638e-12  8.2600764118295300e-13  1.4570834163935091e-11  -9.6460007010661201e-11  4.2057021168823529e-10  -1.5250461945655731e-09  4.9557290890848592e-09  -1.4978972425467666e-08  4.3111963772309402e-08  -1.2021469012680463e-07  3.2943978459729950e-07  -8.9905141136112967e-07  2.4771556168658046e-06  -7.0070013317978159e-06  2.0838772521283257e-05  -6.7639187542507559e-05  2.5314734237718396e-04  -1.1594499978544546e-03  6.6868215492397326e-03  -4.7641490551601301e-02  4.0552441190365934e-01  0.0000000000000000e+00  -6.2792005891036501e-17  -1.0379955746350255e-17  6.5904586589659898e-16  -2.1136260128344919e-15  1.0128510663464198e-15  1.5417612663241429e-14  -6.4172950841515078e-14  1.0080996755190217e-13  1.9993603953044963e-13  -1.8387782309063080e-12  6.4399317911921883e-12  -1.2578489021741183e-11  -2.7080259094671114e-12  1.5106282808013816e-10  -8.4318187405277165e-10  3.3967950748143581e-09  -1.1717609078046281e-08  3.6854687928482581e-08  -1.0932451184594800e-07  3.1290491453781075e-07  -8.7990115678145279e-07  2.4715555011775258e-06  -7.0571568457145019e-06  2.0931807608391515e-05  -6.6479790614735679e-05  2.3628559094557159e-04  -9.9425576499068027e-04  5.2046684117671551e-03  -3.4480698041818532e-02  2.8632730105524101e-01  0.0000000000000000e+00  -5.2790639650767628e-17  2.3645432730816987e-16  -2.4150699598151755e-16  -1.5740167076686682e-15  7.6403831952583984e-15  -1.2568833593669401e-14  -2.1652158837232228e-14  1.8728948576313131e-13  -5.2405299039948967e-13  4.3659671941849204e-13  2.9086876958837167e-12  -1.7132612050090667e-11  5.3979431872048070e-11  -1.0627546540498487e-10  3.7613304129594349e-11  8.0870092317574818e-10  -4.8256645833806365e-09  1.9683831342824629e-08  -6.8348904362051787e-08  2.1730284411872603e-07  -6.5728713494013538e-07  1.9421826937494006e-06  -5.7343088325031420e-06  1.7317948696938553e-05  -5.5062797204207435e-05  1.9174870133761311e-04  -7.7126262702278178e-04  3.7995513452455435e-03  -2.3916606654609325e-02  1.9556539925909502e-01  0.0000000000000000e+00  2.7397964243941569e-17  1.2110506407506506e-16  -8.2054120458754703e-16  1.6921860021682214e-15  1.7330982117852433e-15  -2.1223971786269726e-14  6.1357323697162286e-14  -4.7553590409753710e-14  -3.2378722569745567e-13  1.6307714453146696e-12  -3.8691539589523857e-12  2.7780412246770422e-12  1.9310285534028342e-11  -1.0705238420140550e-10  3.2794882505956044e-10  -6.5305957192642141e-10  3.9460794512022754e-10  3.7953791526086583e-09  -2.4276090946495305e-08  1.0160653290017026e-07  -3.6185599467372382e-07  1.1904506206434419e-06  -3.7807055803815070e-06  1.1980728303707118e-05  -3.9139128407424355e-05  1.3712194883939234e-04  -5.4275883118151431e-04  2.5869155639399320e-03  -1.5772705271042405e-02  1.2831045845389227e-01  0.0000000000000000e+00  5.5402548620105006e-17  -1.5348153601170147e-16  -1.4440262543677750e-16  2.3102203080031235e-15  -7.5095372565664315e-15  7.6404231438631187e-15  3.4006935262362182e-14  -1.8441330397572182e-13  4.1604186496358209e-13  -1.6250683580439122e-13  -2.4665952824053301e-12  1.0776658078865922e-11  -2.5028739273478088e-11  2.4931401324103286e-11  7.1564030154942777e-11  -4.6505246311424087e-10  1.4403557883155772e-09  -2.7815155769660643e-09  1.0539374774539008e-09  2.0286058974477229e-08  -1.2374570370793239e-07  5.2404075956134369e-07  -1.9362372783722647e-06  6.7704690180480393e-06  -2.3574595839894519e-05  8.5660944019111786e-05  -3.4319920936878899e-04  1.6237108978329540e-03  -9.7777353262569911e-03  8.0103587536525342e-02  0.0000000000000000e+00  1.0970865749872870e-17  -1.8193470157416210e-16  6.6894048728271269e-16  -7.0618748388398320e-16  -3.9608501943333096e-15  2.2214685463294327e-14  -5.2885786381623344e-14  2.8227539553626172e-14  2.7960166580169085e-13  -1.2222158103932534e-12  2.5945497570584404e-12  -1.5259676410067895e-12  -1.0935062672188960e-11  4.9947709508680309e-11  -1.1805589226170923e-10  1.3477042288161661e-10  2.2229744259594719e-10  -1.7142566644881011e-09  5.2811586232140624e-09  -9.1774250472610452e-09  -4.2994419783906820e-09  1.1948310651136546e-07  -6.6986221536852411e-07  2.8999564912874262e-06  -1.1500095872798356e-05  4.5347236274354253e-05  -1.9049356442628432e-04  9.2102415687957747e-04  -5.6024667150359111e-03  4.6955252362108651e-02  0.0000000000000000e+00  -2.8544370686720070e-17  8.5624143333898156e-18  4.4313648319128185e-16  -2.2563396105424243e-15  5.4706762736454192e-15  -2.5286361088416965e-15  -3.4387370655262634e-14  1.5117977512188491e-13  -3.2514025552737707e-13  1.9242796963049343e-13  1.3504295734614948e-12  -5.9504309936787854e-12  1.3021845555073462e-11  -1.1630812168143231e-11  -3.1999798074837291e-11  1.7390869461591062e-10  -4.2192915511575505e-10  4.8047357813362672e-10  8.0536535137646405e-10  -6.0291971411162231e-09  1.7509701722697361e-08  -2.2727729586281980e-08  -7.5289990754964408e-08  7.4963728049307430e-07  -4.0605942051390013e-06  1.9021864813698704e-05  -8.8686521067564582e-05  4.5645742562837284e-04  -2.8909167033378562e-03  2.5345275743978681e-02  0.0000000000000000e+00  -2.5247152582149619e-17  1.2347255328861120e-16  -2.5848056397379704e-16  -3.3113291870724368e-16  4.5328425579144009e-15  -1.7527001893851434e-14  3.7317507623678922e-14  -2.1045160528689959e-14  -1.6954569595209407e-13  7.5154898424406058e-13  -1.6669895805055511e-12  1.5446249435007524e-12  3.7601873464342627e-12  -2.0533188384847274e-11  4.7875312217500643e-11  -5.0895742056284372e-11  -7.9527316503516624e-11  5.2105854752873724e-10  -1.2762746772143168e-09  1.3028471788527393e-09  3.3311024269951300e-09  -2.0819314401000624e-08  5.2934377568713717e-08  -1.3571667944768630e-08  -7.0044647093356267e-07  5.3605184179331973e-06  -3.1547321118244972e-05  1.8594094253821086e-04  -1.2869232799953593e-03  1.2222837453693422e-02  0.0000000000000000e+00  -5.4345824224958825e-18  7.5116896387553533e-17  -4.0533742693736134e-16  1.3264481431455101e-15  -2.4234434578557372e-15  -8.9346336822261