<?xml version="1.0"?>
<VTKFile type="UnstructuredGrid"  version="0.1"  >
<UnstructuredGrid>
<Piece  NumberOfPoints="961" NumberOfCells="1800">
<Points>
<DataArray  type="Float64"  NumberOfComponents="3"  format="ascii">-1 -1 0  -0.9333333333333333 -1 0  -0.8666666666666667 -1 0  -0.8 -1 0  -0.7333333333333334 -1 0  -0.6666666666666667 -1 0  -0.6 -1 0  -0.5333333333333333 -1 0  -0.4666666666666667 -1 0  -0.4 -1 0  -0.3333333333333334 -1 0  -0.2666666666666667 -1 0  -0.2 -1 0  -0.1333333333333333 -1 0  -0.06666666666666665 -1 0  0 -1 0  0.06666666666666665 -1 0  0.1333333333333333 -1 0  0.2 -1 0  0.2666666666666666 -1 0  0.3333333333333333 -1 0  0.3999999999999999 -1 0  0.4666666666666666 -1 0  0.5333333333333334 -1 0  0.6000000000000001 -1 0  0.6666666666666667 -1 0  0.7333333333333334 -1 0  0.8 -1 0  0.8666666666666667 -1 0  0.9333333333333333 -1 0  1 -1 0  -1 -0.9333333333333333 0  -0.9333333333333333 -0.9333333333333333 0  -0.8666666666666667 -0.9333333333333333 0  -0.8 -0.9333333333333333 0  -0.7333333333333334 -0.9333333333333333 0  -0.6666666666666667 -0.9333333333333333 0  -0.6 -0.9333333333333333 0  -0.5333333333333333 -0.9333333333333333 0  -0.4666666666666667 -0.9333333333333333 0  -0.4 -0.9333333333333333 0  -0.3333333333333334 -0.9333333333333333 0  -0.2666666666666667 -0.9333333333333333 0  -0.2 -0.9333333333333333 0  -0.1333333333333333 -0.9333333333333333 0  -0.06666666666666665 -0.9333333333333333 0  0 -0.9333333333333333 0  0.06666666666666665 -0.9333333333333333 0  0.1333333333333333 -0.9333333333333333 0  0.2 -0.9333333333333333 0  0.2666666666666666 -0.9333333333333333 0  0.3333333333333333 -0.9333333333333333 0  0.3999999999999999 -0.9333333333333333 0  0.4666666666666666 -0.9333333333333333 0  0.5333333333333334 -0.9333333333333333 0  0.6000000000000001 -0.9333333333333333 0  0.6666666666666667 -0.9333333333333333 0  0.7333333333333334 -0.9333333333333333 0  0.8 -0.9333333333333333 0  0.8666666666666667 -0.9333333333333333 0  0.9333333333333333 -0.9333333333333333 0  1 -0.9333333333333333 0  -1 -0.8666666666666667 0  -0.9333333333333333 -0.8666666666666667 0  -0.8666666666666667 -0.8666666666666667 0  -0.8 -0.8666666666666667 0  -0.7333333333333334 -0.8666666666666667 0  -0.6666666666666667 -0.8666666666666667 0  -0.6 -0.8666666666666667 0  -0.5333333333333333 -0.8666666666666667 0  -0.4666666666666667 -0.8666666666666667 0  -0.4 -0.8666666666666667 0  -0.3333333333333334 -0.8666666666666667 0  -0.2666666666666667 -0.8666666666666667 0  -0.2 -0.8666666666666667 0  -0.1333333333333333 -0.8666666666666667 0  -0.06666666666666665 -0.8666666666666667 0  0 -0.8666666666666667 0  0.06666666666666665 -0.8666666666666667 0  0.1333333333333333 -0.8666666666666667 0  0.2 -0.8666666666666667 0  0.2666666666666666 -0.8666666666666667 0  0.3333333333333333 -0.8666666666666667 0  0.3999999999999999 -0.8666666666666667 0  0.4666666666666666 -0.8666666666666667 0  0.5333333333333334 -0.8666666666666667 0  0.6000000000000001 -0.8666666666666667 0  0.6666666666666667 -0.8666666666666667 0  0.7333333333333334 -0.8666666666666667 0  0.8 -0.8666666666666667 0  0.8666666666666667 -0.8666666666666667 0  0.9333333333333333 -0.8666666666666667 0  1 -0.8666666666666667 0  -1 -0.8 0  -0.9333333333333333 -0.8 0  -0.8666666666666667 -0.8 0  -0.8 -0.8 0  -0.7333333333333334 -0.8 0  -0.6666666666666667 -0.8 0  -0.6 -0.8 0  -0.5333333333333333 -0.8 0  -0.4666666666666667 -0.8 0  -0.4 -0.8 0  -0.3333333333333334 -0.8 0  -0.2666666666666667 -0.8 0  -0.2 -0.8 0  -0.1333333333333333 -0.8 0  -0.06666666666666665 -0.8 0  0 -0.8 0  0.06666666666666665 -0.8 0  0.1333333333333333 -0.8 0  0.2 -0.8 0  0.2666666666666666 -0.8 0  0.3333333333333333 -0.8 0  0.3999999999999999 -0.8 0  0.4666666666666666 -0.8 0  0.5333333333333334 -0.8 0  0.6000000000000001 -0.8 0  0.6666666666666667 -0.8 0  0.7333333333333334 -0.8 0  0.8 -0.8 0  0.8666666666666667 -0.8 0  0.9333333333333333 -0.8 0  1 -0.8 0  -1 -0.7333333333333334 0  -0.9333333333333333 -0.7333333333333334 0  -0.8666666666666667 -0.7333333333333334 0  -0.8 -0.7333333333333334 0  -0.7333333333333334 -0.7333333333333334 0  -0.6666666666666667 -0.7333333333333334 0  -0.6 -0.7333333333333334 0  -0.5333333333333333 -0.7333333333333334 0  -0.4666666666666667 -0.7333333333333334 0  -0.4 -0.7333333333333334 0  -0.3333333333333334 -0.7333333333333334 0  -0.2666666666666667 -0.7333333333333334 0  -0.2 -0.7333333333333334 0  -0.1333333333333333 -0.7333333333333334 0  -0.06666666666666665 -0.7333333333333334 0  0 -0.7333333333333334 0  0.06666666666666665 -0.7333333333333334 0  0.1333333333333333 -0.7333333333333334 0  0.2 -0.7333333333333334 0  0.2666666666666666 -0.7333333333333334 0  0.3333333333333333 -0.7333333333333334 0  0.3999999999999999 -0.7333333333333334 0  0.4666666666666666 -0.7333333333333334 0  0.5333333333333334 -0.7333333333333334 0  0.6000000000000001 -0.7333333333333334 0  0.6666666666666667 -0.7333333333333334 0  0.7333333333333334 -0.7333333333333334 0  0.8 -0.7333333333333334 0  0.8666666666666667 -0.7333333333333334 0  0.9333333333333333 -0.7333333333333334 0  1 -0.7333333333333334 0  -1 -0.6666666666666667 0  -0.9333333333333333 -0.6666666666666667 0  -0.8666666666666667 -0.6666666666666667 0  -0.8 -0.6666666666666667 0  -0.7333333333333334 -0.6666666666666667 0  -0.6666666666666667 -0.6666666666666667 0  -0.6 -0.6666666666666667 0  -0.5333333333333333 -0.6666666666666667 0  -0.4666666666666667 -0.6666666666666667 0  -0.4 -0.6666666666666667 0  -0.3333333333333334 -0.6666666666666667 0  -0.2666666666666667 -0.6666666666666667 0  -0.2 -0.6666666666666667 0  -0.1333333333333333 -0.6666666666666667 0  -0.06666666666666665 -0.6666666666666667 0  0 -0.6666666666666667 0  0.06666666666666665 -0.6666666666666667 0  0.1333333333333333 -0.6666666666666667 0  0.2 -0.6666666666666667 0  0.2666666666666666 -0.6666666666666667 0  0.3333333333333333 -0.6666666666666667 0  0.3999999999999999 -0.6666666666666667 0  0.4666666666666666 -0.6666666666666667 0  0.5333333333333334 -0.6666666666666667 0  0.6000000000000001 -0.6666666666666667 0  0.6666666666666667 -0.6666666666666667 0  0.7333333333333334 -0.6666666666666667 0  0.8 -0.6666666666666667 0  0.8666666666666667 -0.6666666666666667 0  0.9333333333333333 -0.6666666666666667 0  1 -0.6666666666666667 0  -1 -0.6 0  -0.9333333333333333 -0.6 0  -0.8666666666666667 -0.6 0  -0.8 -0.6 0  -0.7333333333333334 -0.6 0  -0.6666666666666667 -0.6 0  -0.6 -0.6 0  -0.5333333333333333 -0.6 0  -0.4666666666666667 -0.6 0  -0.4 -0.6 0  -0.3333333333333334 -0.6 0  -0.2666666666666667 -0.6 0  -0.2 -0.6 0  -0.1333333333333333 -0.6 0  -0.06666666666666665 -0.6 0  0 -0.6 0  0.06666666666666665 -0.6 0  0.1333333333333333 -0.6 0  0.2 -0.6 0  0.2666666666666666 -0.6 0  0.3333333333333333 -0.6 0  0.3999999999999999 -0.6 0  0.4666666666666666 -0.6 0  0.5333333333333334 -0.6 0  0.6000000000000001 -0.6 0  0.6666666666666667 -0.6 0  0.7333333333333334 -0.6 0  0.8 -0.6 0  0.8666666666666667 -0.6 0  0.9333333333333333 -0.6 0  1 -0.6 0  -1 -0.5333333333333333 0  -0.9333333333333333 -0.5333333333333333 0  -0.8666666666666667 -0.5333333333333333 0  -0.8 -0.5333333333333333 0  -0.7333333333333334 -0.5333333333333333 0  -0.6666666666666667 -0.5333333333333333 0  -0.6 -0.5333333333333333 0  -0.5333333333333333 -0.5333333333333333 0  -0.4666666666666667 -0.5333333333333333 0  -0.4 -0.5333333333333333 0  -0.3333333333333334 -0.5333333333333333 0  -0.2666666666666667 -0.5333333333333333 0  -0.2 -0.5333333333333333 0  -0.1333333333333333 -0.5333333333333333 0  -0.06666666666666665 -0.5333333333333333 0  0 -0.5333333333333333 0  0.06666666666666665 -0.5333333333333333 0  0.1333333333333333 -0.5333333333333333 0  0.2 -0.5333333333333333 0  0.2666666666666666 -0.5333333333333333 0  0.3333333333333333 -0.5333333333333333 0  0.3999999999999999 -0.5333333333333333 0  0.4666666666666666 -0.5333333333333333 0  0.5333333333333334 -0.5333333333333333 0  0.6000000000000001 -0.5333333333333333 0  0.6666666666666667 -0.5333333333333333 0  0.7333333333333334 -0.5333333333333333 0  0.8 -0.5333333333333333 0  0.8666666666666667 -0.5333333333333333 0  0.9333333333333333 -0.5333333333333333 0  1 -0.5333333333333333 0  -1 -0.4666666666666667 0  -0.9333333333333333 -0.4666666666666667 0  -0.8666666666666667 -0.4666666666666667 0  -0.8 -0.4666666666666667 0  -0.7333333333333334 -0.4666666666666667 0  -0.6666666666666667 -0.4666666666666667 0  -0.6 -0.4666666666666667 0  -0.5333333333333333 -0.4666666666666667 0  -0.4666666666666667 -0.4666666666666667 0  -0.4 -0.4666666666666667 0  -0.3333333333333334 -0.4666666666666667 0  -0.2666666666666667 -0.4666666666666667 0  -0.2 -0.4666666666666667 0  -0.1333333333333333 -0.4666666666666667 0  -0.06666666666666665 -0.4666666666666667 0  0 -0.4666666666666667 0  0.06666666666666665 -0.4666666666666667 0  0.1333333333333333 -0.4666666666666667 0  0.2 -0.4666666666666667 0  0.2666666666666666 -0.4666666666666667 0  0.3333333333333333 -0.4666666666666667 0  0.3999999999999999 -0.4666666666666667 0  0.4666666666666666 -0.4666666666666667 0  0.5333333333333334 -0.4666666666666667 0  0.6000000000000001 -0.4666666666666667 0  0.6666666666666667 -0.4666666666666667 0  0.7333333333333334 -0.4666666666666667 0  0.8 -0.4666666666666667 0  0.8666666666666667 -0.4666666666666667 0  0.9333333333333333 -0.4666666666666667 0  1 -0.4666666666666667 0  -1 -0.4 0  -0.9333333333333333 -0.4 0  -0.8666666666666667 -0.4 0  -0.8 -0.4 0  -0.7333333333333334 -0.4 0  -0.6666666666666667 -0.4 0  -0.6 -0.4 0  -0.5333333333333333 -0.4 0  -0.4666666666666667 -0.4 0  -0.4 -0.4 0  -0.3333333333333334 -0.4 0  -0.2666666666666667 -0.4 0  -0.2 -0.4 0  -0.1333333333333333 -0.4 0  -0.06666666666666665 -0.4 0  0 -0.4 0  0.06666666666666665 -0.4 0  0.1333333333333333 -0.4 0  0.2 -0.4 0  0.2666666666666666 -0.4 0  0.3333333333333333 -0.4 0  0.3999999999999999 -0.4 0  0.4666666666666666 -0.4 0  0.5333333333333334 -0.4 0  0.6000000000000001 -0.4 0  0.6666666666666667 -0.4 0  0.7333333333333334 -0.4 0 
[...]
<PointData  Scalars="f_24"> 
<DataArray  type="Float64"  Name="f_24"  format="ascii">0.0000000000000000e+00  0.0000000000000000e+00  0.0000000000000000e+00  0.0000000000000000e+00  0.0000000000000000e+00  0.0000000000000000e+00  0.0000000000000000e+00  0.0000000000000000e+00  0.0000000000000000e+00  0.0000000000000000e+00  0.0000000000000000e+00  0.0000000000000000e+00  0.0000000000000000e+00  0.0000000000000000e+00  0.0000000000000000e+00  0.0000000000000000e+00  0.0000000000000000e+00  0.0000000000000000e+00  0.0000000000000000e+00  0.0000000000000000e+00  0.0000000000000000e+00  0.0000000000000000e+00  0.0000000000000000e+00  0.0000000000000000e+00  0.0000000000000000e+00  0.0000000000000000e+00  0.0000000000000000e+00  0.0000000000000000e+00  0.0000000000000000e+00  0.0000000000000000e+00  1.3297668541634009e+01  0.0000000000000000e+00  2.6885122012616135e-02  7.5447614287109568e-02  1.3288622163457550e-01  1.9159624007011561e-01  2.4917446079633418e-01  3.0499030928942239e-01  3.5916225311381306e-01  4.1219213883800909e-01  4.6480415607866271e-01  5.1788285388447985e-01  5.7245756140879844e-01  6.2971346924340543e-01  6.9102492423502715e-01  7.5801116754734843e-01  8.3261884320509272e-01  9.1723969199193622e-01  1.0148766456640446e+00  1.1293787279031873e+00  1.2657760479990205e+00  1.4307631269366197e+00  1.6334062105487428e+00  1.8861963794515191e+00  2.2066518214504915e+00  2.6198268582779649e+00  3.1623971912153572e+00  3.8896657285252685e+00  4.8885817639915050e+00  6.3037942541734466e+00  8.4011898318649703e+00  1.1611343584932646e+01  0.0000000000000000e+00  5.0042317255680153e-02  1.3645280742257013e-01  2.3074641391384706e-01  3.1396288185804622e-01  3.8025051189898473e-01  4.2849667579006756e-01  4.6005089375137087e-01  4.7735241600511741e-01  4.8316618760035857e-01  4.8017486803256748e-01  4.7077249746402849e-01  4.5699247540484356e-01  4.4051785186975612e-01  4.2273956171313659e-01  4.0484503091150581e-01  3.8793138026004809e-01  3.7314969074063770e-01  3.6190114502291459e-01  3.5612580548276329e-01  3.5875740595922401e-01  3.7447409208332072e-01  4.1097619485539372e-01  4.8120868290646052e-01  6.0730185352267063e-01  8.2772925604544489e-01  1.2108238441994399e+00  1.8817171845469456e+00  3.0832316955873735e+00  5.3298105700749039e+00  1.0090730561884683e+01  0.0000000000000000e+00  6.8289674014785265e-02  1.7774791706667564e-01  2.8218931213541865e-01  3.5182082419827654e-01  3.8232775391593965e-01  3.7892638554209634e-01  3.5095365194390959e-01  3.0794561572706014e-01  2.5789291446186086e-01  2.0666579801757934e-01  1.5810391323225650e-01  1.1440909618169846e-01  7.6599934020021396e-02  4.4917273904991790e-02  1.9141238265874796e-02  -1.1804203841078293e-03  -1.6572817411884443e-02  -2.7515385383297376e-02  -3.4327938419922981e-02  -3.7005383341008495e-02  -3.4896930550242164e-02  -2.6013756880033552e-02  -5.5031905076771293e-03  3.7704323719386992e-02  1.2821335975486281e-01  3.2011390603002626e-01  7.3286823421212433e-01  1.6348212422251429e+00  3.6834798887870210e+00  8.7246003301660728e+00  0.0000000000000000e+00  8.1156716218330788e-02  1.9932222136988376e-01  2.9250935000262074e-01  3.2668822485815041e-01  3.0854257145712427e-01  2.5715992492929279e-01  1.9279609231285566e-01  1.3025015980066401e-01  7.7851840465672520e-02  3.8639102019151793e-02  1.2267864417304711e-02  -3.3043277088706732e-03  -1.0667256584707239e-02  -1.2304785108039703e-02  -1.0303995728342239e-02  -6.2823655846339617e-03  -1.4259479340696434e-03  3.4270143971832606e-03  7.6928978955965038e-03  1.0959462849106498e-02  1.2936744287504326e-02  1.3517376153601759e-02  1.3202518342298516e-02  1.4671042802821775e-02  2.7665092402049073e-02  8.2931830710176513e-02  2.6945572466384005e-01  8.3724607691403241e-01  2.4830720762743215e+00  7.5021177524465967e+00  0.0000000000000000e+00  8.8788356752879133e-02  2.0439876497188098e-01  2.7462213597861929e-01  2.7015682887743742e-01  2.1543020690200132e-01  1.4350069893639214e-01  7.9158056634448165e-02  3.3327259744014320e-02  6.7325473927730122e-03  -5.0689895954010196e-03  -7.6848182001079757e-03  -5.8189116464747014e-03  -2.6355855391835257e-03  1.1415654796563585e-04  1.6965429443378643e-03  1.9984991132243487e-03  1.2266970817606166e-03  -2.8744415861787115e-04  -2.2003470374627283e-03  -4.2190526936051491e-03  -6.1485803603322942e-03  -7.9596171874283545e-03  -9.8840334246100420e-03  -1.2295025722870412e-02  -1.4036043889591485e-02  -4.1034510369221651e-03  7.0308839501166412e-02  4.0639805833509579e-01  1.6942952599551293e+00  6.4128416963898589e+00  0.0000000000000000e+00  9.1772092222668772e-02  1.9749297339539132e-01  2.4183447238251868e-01  2.0710254009523565e-01  1.3561064018199334e-01  6.7367732804744881e-02  2.2085388824316699e-02  3.4521003259053442e-04  -5.6930385105648336e-03  -4.4935068367997922e-03  -1.6245345775388197e-03  4.0436134768398734e-04  1.0875630620263334e-03  8.2434225589231834e-04  2.1037284202255136e-04  -2.8673604468637732e-04  -4.1248695063320930e-04  -9.7517528829187927e-05  6.0446733995692266e-04  1.5761959613162693e-03  2.6802850682029582e-03  3.7699249691657082e-03  4.6082416582766458e-03  4.5453526198969635e-03  2.1231697780376203e-03  -2.4790821854325362e-03  1.2364482697570884e-02  1.8527628109188735e-01  1.1289092915551813e+00  5.4467250346532907e+00  0.0000000000000000e+00  9.0942893322541671e-02  1.8303135217316441e-01  2.0425816961324983e-01  1.5126691795880884e-01  7.9072884487934869e-02  2.6040520693177947e-02  1.1447283505049278e-03  -4.7326791035198117e-03  -2.9541137722016797e-03  -4.3125402627317900e-04  6.6520516296885844e-04  5.8150204916044732e-04  1.2312429375438622e-04  -1.8663510575887341e-04  -2.1868799847223766e-04  -8.0119483007103616e-05  5.5777839583576556e-05  5.0977122470600837e-05  -1.6196335793236042e-04  -5.8270383776936360e-04  -1.1591050315859120e-03  -1.7944357289301929e-03  -2.3489415233243901e-03  -2.7434983442178847e-03  -3.7037175770623129e-03  -7.9898766623307978e-03  -1.2432299964665581e-02  6.2914947478764055e-02  7.3762801889259011e-01  4.5941146448881502e+00  0.0000000000000000e+00  8.7212339394608512e-02  1.6463441304875423e-01  1.6810226176577575e-01  1.0754773547205147e-01  4.3591479837747096e-02  7.1597275308445734e-03  -3.5960470672341954e-03  -2.7975509887293946e-03  -3.5320574027992269e-04  5.4135524669372782e-04  3.3198757951421798e-04  -2.8776335782206561e-05  -1.3815548507858732e-04  -5.8330251870238396e-05  3.9434498874306938e-05  6.4363421709129267e-05  2.9085159238545754e-05  6.7516057860202162e-07  4.8541537773350138e-05  2.1443340547355879e-04  5.0303151217164204e-04  8.8353833974861478e-04  1.3257623237409963e-03  1.8660354326597811e-03  2.4814489423239669e-03  1.1288226093939622e-03  -7.4558541915646179e-03  1.2662032214983038e-02  4.6829483087931123e-01  3.8457514097395276e+00  0.0000000000000000e+00  8.1446995870431596e-02  1.4490979872060289e-01  1.3639842308116595e-01  7.5819354716132201e-02  2.3151038308855773e-02  -1.9210329936201827e-05  -3.1633934779189150e-03  -8.7804967463041977e-04  3.9247008539312558e-04  2.9055161510323522e-04  -2.5707066875255845e-05  -9.4474991244456353e-05  -1.7510319305654491e-05  3.1827329445113414e-05  1.8441331380403717e-05  -1.2725458683683970e-05  -2.3161708238108480e-05  -1.5107847834693076e-05  -2.0955785669600056e-05  -7.8789905891172020e-05  -2.1427752064750682e-04  -4.3184361954878576e-04  -7.3448365220328429e-04  -1.0546998267906924e-03  -1.1510676414017978e-03  -1.2589425419565312e-03  -7.6281544983490580e-03  -1.3583695209907116e-02  2.7812033144522330e-01  3.1927702168463248e+00  0.0000000000000000e+00  7.4398798272707373e-02  1.2553765128772060e-01  1.1009022045186075e-01  5.3899895776059553e-02  1.2119641795008329e-02  -2.0520689566825906e-03  -1.9087617679310236e-03  -1.0528843427487504e-05  3.3999904447193087e-04  3.6341095972653811e-05  -7.5083854550517343e-05  -1.8403714240084590e-05  2.2221850741803874e-05  8.8928487982633925e-06  -8.0271101417834733e-06  -5.0875294069831504e-06  6.1145917499549834e-06  1.0816657365822247e-05  1.2268009851581067e-05  2.9876900807268046e-05  8.8092612330429901e-05  2.0201492070483053e-04  3.8300824328439019e-04  5.6099041388618241e-04  8.7680626422190558e-04  1.5924098827586818e-03  -7.4928418979637557e-04  -1.6805443258022242e-02  1.5630834143559852e-01  2.6266999588412872e+00  0.0000000000000000e+00  6.6677275044801365e-02  1.0747414254080315e-01  8.8968587756916059e-02  3.9232282412989407e-02  6.4882101460256867e-03  -2.1966877324387890e-03  -1.0009660514000258e-03  2.2107687390931439e-04  1.7113593566730556e-04  -4.4790106056541733e-05  -3.4752423979561009e-05  1.1993609284105470e-05  9.7111176155571157e-06  -4.8546073947049046e-06  -3.2490878399189105e-06  2.2533122145064500e-06  1.0077822917038384e-06  -3.7342027053835803e-06  -6.7796509752724187e-06  -1.2269145369638604e-05  -3.5164125218616533e-05  -8.7823031334304186e-05  -1.9069989579218434e-04  -3.1465077743136655e-04  -6.0272499259689716e-04  -2.8204175209651502e-04  -9.3572258531644424e-04  -1.6742977408260074e-02  7.0481092560480921e-02  2.1394635333509697e+00  0.0000000000000000e+00  5.8749614537038072e-02  9.1168933661435081e-02  7.2310541172385695e-02  2.9607407910485720e-02  3.7831056909047459e-03  -1.8229256727163039e-03  -5.1745018326349458e-04  2.1789629190808329e-04  6.8203186510214591e-05  -4.5080170421649986e-05  -7.1107449901663711e-06  1.0948034371395315e-05  4.6170669783086672e-08  -3.4109214651106319e-06  9.1978226789339531e-07  1.0898494623482237e-06  -6.3255962662397504e-07  2.0127140864282201e-07  2.6846881502778707e-06  5.2456890570381284e-06  1.4195141223712594e-05  3.4114494521637262e-05  9.4654234379392961e-05  1.6211889006934627e-04  3.0191110226827526e-04  3.9325098538794994e-04  1.8305294444294806e-03  -1.1172375468908667e-02  2.2006302271616787e-02  1.7233778429957674e+00  0.0000000000000000e+00  5.0956093519797713e-02  7.6748854340334086e-02  5.9252112496181994e-02  2.3353369908924938e-02  2.6124639467065666e-03  -1.4067260122339411e-03  -3.0606047965937887e-04  1.6418088516401396e-04  2.7263407212497246e-05  -2.9933127752044308e-05  1.1011337496395785e-06  5.5703529249895648e-06  -1.6618248887334746e-06  -9.5964425569944297e-07  8.8211519324372255e-07  -9.0876242344368408e-08  -3.2703255051286947e-07  1.1054009745210143e-07  -5.9096592669164401e-07  -1.8721820233457124e-06  -6.2079056709256045e-06  -1.0751466074303427e-05  -4.8560496873167647e-05  -5.9768281955803731e-05  -2.1280225670365421e-04  -2.6657526197202428e-04  5.2114070182007093e-04  -6.9177704792943457e-03  -1.0790251911054604e-02  1.3711537953898938e+00  0.0000000000000000e+00  4.3531840582212926e-02  6.4154559905206340e-02  4.8975762430575817e-02  1.9290474944366753e-02  2.2424743663462051e-03  -1.0612639136635454e-03  -2.3626406037561691e-04  1.1444897568691242e-04  1.7571168907897995e-05  -1.8422421796338899e-05  1.0851859495358396e-06  2.7462405719808815e-06  -9.5697437109831215e-07  -2.1441176171470666e-07  3.0085161456273923e-07  -1.2285496869521903e-07  2.3431952725060005e-09  6.8586456366360069e-08  1.4347593497404859e-07  2.7609100628064640e-07  3.1640700204776542e-06  1.3381503554186428e-06  2.6058183269458149e-05  1.2017049185135242e-05  1.5460462355547166e-04  -7.4340856070076829e-05  1.1675980606469332e-03  -2.6356229248300123e-03  -2.4569546469434326e-02  1.0758963031413906e+00  0.0000000000000000e+00  3.6629344635052942e-02  5.3233654136373487e-02  4.0786547236886968e-02  1.6615347682151869e-02  2.3024010228070240e-03  -7.7460001757924434e-04  -2.3197932621894728e-04  7.3569197228216994e-05  1.9732300143153712e-05  -1.0945207703667182e-05  -8.0908802559917913e-07  1.5329766295681222e-06  -2.0869741814187102e-07  -1.0636518276377008e-07  5.6948641197972958e-08  -2.5675017855310450e-08  8.0064695286816769e-09  1.1712001764990416e-08  -1.3325140924582652e-07  3.2700334385780160e-07  -2.1884656007279101e-06  2.6722307693268761e-06  -1.6658965371593708e-05  6.4679612012318023e-06  -7.6431338015606784e-05  -6.2600350819884363e-05  -3.7515025003593611e-06  1.3322136778029983e-04  -3.2272520032615146e-02  8.3110428385212554e-01  0.0000000000000000e+00  3.0338762456245939e-02  4.3799628675220109e-02  3.4129694101497389e-02  1.4786457776279804e-02  2.6049932625109421e-03  -5.0129269887652628e-04  -2.5136832459638544e-04  3.3876674208168588e-05  2.4006477899391749e-05  -4.4914065205317857e-06  -2.3094265821897887e-06  5.6080841515206107e-07  1.6952905702892202e-07  -2.2382476056157571e-08  9.5042752990787085e-10  2.9096286041888782e-09  -1.0269131998039051e-08  1.3300277250028170e-08  4.1040762212106196e-08  -2.8360166518269053e-07  1.3803747662872802e-06  -3.0387569766848128e-06  1.0814141573705455e-05  -1.2853016305218035e-05  5.3437638573508853e-05  -1.7741731423835712e-05  8.2134010989968806e-05  1.8412515320394259e-03  -3.1481910229886598e-02  6.3067066011779271e-01  0.0000000000000000e+00  2.4704818198559450e-02  3.5666395477468818e-02  2.8581742046839949e-02  1.3435260558660057e-02  3.0446305633374275e-03  -1.9400861914070381e-04  -2.6455319521952880e-04  -1.1261573454908394e-05  2.3698069275188449e-05  2.4524478668893696e-06  -2.1666064842772135e-06  -4.3959886958341196e-07  8.3316234123755952e-08  3.2996778267455004e-08  2.1634362912352052e-09  9.7960249843822181e-09  -3.0147719296595958e-08  9.6697398554832822e-08  -3.1175497745978475e-07  9.4733502822494720e-07  -2.6375521453262130e-06  6.2597297394659181e-06  -1.5049702181576689e-05  2.8212045807502018e-05  -6.9053771672512678e-05  1.2286929659041323e-04  -5.0316123935209057e-04  2.7037599064547650e-03  -2.9077767569557378e-02  4.6888235952791230e-01  0.0000000000000000e+00  1.9740108106357832e-02  2.8666475606795003e-02  2.3832664667584807e-02  1.2306057854772640e-02  3.5419387817209168e-03  1.8335516559286815e-04  -2.3986669919092639e-04  -6.0694598905568183e-05  1.2402907810974416e-05  8.0116122329126331e-06  3.2429468376194801e-07  -6.5611655575119760e-07  -2.2763745106623791e-07  -5.1770026738529993e-08  -1.8677471157751837e-08  2.8194768154186781e-09  -2.2923689253576909e-08  4.0811508037195848e-08  -1.2393351501245729e-08  -1.5727704409721486e-07  6.6259516578289969e-07  -1.6460071921165958e-06  2.9371360073219226e-06  -8.7075541999585320e-07  -1.0229117616670111e-05  8.9947974728152709e-05  -4.1567433393431639e-04  2.7629189699911296e-03  -2.3814175888431117e-02  3.4042031466583067e-01  0.0000000000000000e+00  1.5435112494432027e-02  2.2658757920297118e-02  1.9667142849383763e-02  1.1220305934870806e-02  4.0160233914884784e-03  6.4423185207393267e-04  -1.4069009141528526e-04  -9.9146757320700823e-05  -1.2898876848540156e-05  6.5765062570378240e-06  3.4567837395680538e-06  6.5835716760419471e-07  -1.8865867656463773e-09  -3.7332988848376464e-08  -7.6609161445439105e-09  1.0514042913850411e-08  -8.0121364198338188e-09  1.0228558203432712e-07  -3.3348869425863852e-07  9.8907923590031846e-07  -2.6104548042471051e-06  6.0080527930390163e-06  -1.3160802092107698e-05  2.7643121874718982e-05  -6.2923816574179213e-05  1.5847081665970754e-04  -5.4783749036295306e-04  2.5487591850944995e-03  -1.8865423093672198e-02  2.4035946310872047e-01  0.0000000000000000e+00  1.1765458347376290e-02  1.7529830821282625e-02  1.5947892804906681e-02  1.0059322482116837e-02  4.3756093479268739e-03  1.1663582127835791e-03  6.4949394277410448e-05  -9.3967128075157593e-05  -4.3086547148975393e-05  -6.8065697268122934e-06  1.9288146415375425e-06  1.7495238011339477e-06  7.9200711611649623e-07  3.2844872751317025e-07  1.5298598108294208e-07  7.1859654362675962e-08  4.1615357884797194e-08  -4.3826037406655416e-08  1.1934678832746454e-07  -4.2623019052171123e-07  7.7002934565810815e-07  -1.2870787279054106e-06  7.2445409433750243e-07  3.8906846892542163e-06  -2.3074334785978765e-05  9.7462303613702982e-05  -3.9885362361792207e-04  2.0004038798256780e-03  -1.3710079295199767e-02  1.6416874742758045e-01  0.0000000000000000e+00  8.6969184277871647e-03  1.3191469849375527e-02  1.2601171517061274e-02  8.7591529903609435e-03  4.5260627178230362e-03  1.6827317469819973e-03  3.8225802579901235e-04  -4.1063586048988667e-06  -4.8913939968277907e-05  -2.5300805776646207e-05  -7.9956318149766058e-06  -1.6575623088375801e-06  -1.2341159104941108e-07  7.2389361244332278e-08  1.7137025170044797e-08  -4.9725169117701628e-08  -1.0040427559756674e-07  -5.7231840712756104e-08  -3.2380554186900309e-07  5.1395031314356059e-07  -1.5779330527947697e-06  3.2567587576081202e-06  -7.0057675385046356e-06  1.4998029461958065e-05  -3.5651235205398460e-05  9.8382336325907914e-05  -3.3688727012189763e-04  1.4878829450895134e-03  -9.5198842128077603e-03  1.0771111518723553e-01  0.0000000000000000e+00  6.1887453610694068e-03  9.5758521104224587e-03  9.6034030795275928e-03  7.3111967471778923e-03  4.3900525781258633e-03  2.0873672430902360e-03  7.6456910462062953e-04  1.9170246110104361e-04  1.1213942639972089e-05  -2.1225538491244482e-05  -1.6358052930140399e-05  -8.6998310758840342e-06  -4.2388050531715127e-06  -2.1475387586152868e-06  -1.2130487907699064e-06  -7.6426908218151504e-07  -4.9585604471430171e-07  -4.2186695911508048e-07  -1.6276001675282991e-08  -6.1933173092190585e-07  8.5014225085013009e-07  -1.4107196630297283e-06  1.3595610151465750e-06  8.1690439288938694e-07  -1.0727837543092136e-05  4.8744686788628382e-05  -2.0287104944104192e-04  9.6042669627285871e-04  -6.0588312111101257e-03  6.7243518946336955e-02  0.0000000000000000e+00  4.1955428357965839e-03  6.6294366389096308e-03  6.9674889045606876e-03  5.7620245260089752e-03  3.9359713322069095e-03  2.2649382666578614e-03  1.1067375877754633e-03  4.5812111129905241e-04  1.5698421233126305e-04  4.0550990850761293e-05  4.0073101406458428e-06  -4.1376864951772840e-06  -4.2883546720468936e-06  -2.9774693724187279e-06  -1.8331055953683915e-06  -1.0433971242945942e-06  -5.6794770291543555e-07  -1.6203881210209197e-07  -2.1182034782742542e-07  4.3393515826834966e-07  -5.9656829609955084e-07  1.3109982423573215e-06  -2.0696088464752750e-06  4.2947926683032819e-06  -1.0606488742367003e-05  3.3018966220631466e-05  -1.2410484055161254e-04  5.7111163844728149e-04  -3.5684434792289726e-03  3.9416916257362010e-02  0.0000000000000000e+00  2.6683383536571666e-03  4.3061161356607522e-03  4.7278422467751102e-03  4.2063775702279689e-03  3.2025295671050929e-03  2.1412402465333840e-03  1.2789073669583399e-03  6.9244226794323664e-04  3.4502954136472736e-04  1.6103271482059323e-04  7.1966009966256615e-05  3.1736314725500404e-05  1.4373818289088715e-05  7.0512673900096318e-06  3.9206357564116884e-06  2.5123933906347240e-06  1.8228343030996688e-06  1.3096570831887505e-06  1.1995253197011632e-06  4.7975577986693795e-07  1.0848926053015003e-06  -4.8401694026709678e-07  1.3119315643036023e-06  -9.3730480778117389e-07  -7.7541992077199850e-07  1.0171158753584038e-05  -5.3962181338772973e-05  2.8336272199639534e-04  -1.8603778602810977e-03  2.1276269666614396e-02  0.0000000000000000e+00  1.5544839850386582e-03  2.5598607967943837e-03  2.9235807801049219e-03  2.7692686461313633e-03  2.3045023811521063e-03  1.7323017840040935e-03  1.1977088923049244e-03  7.7315249344403090e-04  4.7281170986098684e-04  2.7815863929328148e-04  1.6000076026176683e-04  9.1515696721349674e-05  5.2846599227118590e-05  3.1214835524981982e-05  1.8971769020447757e-05  1.1896868072774566e-05  7.5991964575431321e-06  5.0077570080812750e-06  3.0727499470451463e-06  2.2516309549636647e-06  8.7140181093024465e-07  1.1685783679497235e-06  -2.0592380265827225e-07  7.6335524636060282e-07  -9.3166261015670301e-07  3.7304654354538180e-06  -1.9873970041568380e-05  1.1625102713019716e-04  -8.3131505654369389e-04  1.0260546714223762e-02  0.0000000000000000e+00  7.9753666621081823e-04  1.3375086349309039e-03  1.5808022732981138e-03  1.5771986963767381e-03  1.4087239836133565e-03  1.1581790409328128e-03  8.9131484782131168e-04  6.5005897185232097e-04  4.5403133544248990e-04  3.0663893664367525e-04  2.0205890818534802e-04  1.3099666534153637e-04  