<?xml version="1.0"?>
<VTKFile type="UnstructuredGrid"  version="0.1"  >
<UnstructuredGrid>
<Piece  NumberOfPoints="961" NumberOfCells="1800">
<Points>
<DataArray  type="Float64"  NumberOfComponents="3"  format="ascii">-1 -1 0  -0.9333333333333333 -1 0  -0.8666666666666667 -1 0  -0.8 -1 0  -0.7333333333333334 -1 0  -0.6666666666666667 -1 0  -0.6 -1 0  -0.5333333333333333 -1 0  -0.4666666666666667 -1 0  -0.4 -1 0  -0.3333333333333334 -1 0  -0.2666666666666667 -1 0  -0.2 -1 0  -0.1333333333333333 -1 0  -0.06666666666666665 -1 0  0 -1 0  0.06666666666666665 -1 0  0.1333333333333333 -1 0  0.2 -1 0  0.2666666666666666 -1 0  0.3333333333333333 -1 0  0.3999999999999999 -1 0  0.4666666666666666 -1 0  0.5333333333333334 -1 0  0.6000000000000001 -1 0  0.6666666666666667 -1 0  0.7333333333333334 -1 0  0.8 -1 0  0.8666666666666667 -1 0  0.9333333333333333 -1 0  1 -1 0  -1 -0.9333333333333333 0  -0.9333333333333333 -0.9333333333333333 0  -0.8666666666666667 -0.9333333333333333 0  -0.8 -0.9333333333333333 0  -0.7333333333333334 -0.9333333333333333 0  -0.6666666666666667 -0.9333333333333333 0  -0.6 -0.9333333333333333 0  -0.5333333333333333 -0.9333333333333333 0  -0.4666666666666667 -0.9333333333333333 0  -0.4 -0.9333333333333333 0  -0.3333333333333334 -0.9333333333333333 0  -0.2666666666666667 -0.9333333333333333 0  -0.2 -0.9333333333333333 0  -0.1333333333333333 -0.9333333333333333 0  -0.06666666666666665 -0.9333333333333333 0  0 -0.9333333333333333 0  0.06666666666666665 -0.9333333333333333 0  0.1333333333333333 -0.9333333333333333 0  0.2 -0.9333333333333333 0  0.2666666666666666 -0.9333333333333333 0  0.3333333333333333 -0.9333333333333333 0  0.3999999999999999 -0.9333333333333333 0  0.4666666666666666 -0.9333333333333333 0  0.5333333333333334 -0.9333333333333333 0  0.6000000000000001 -0.9333333333333333 0  0.6666666666666667 -0.9333333333333333 0  0.7333333333333334 -0.9333333333333333 0  0.8 -0.9333333333333333 0  0.8666666666666667 -0.9333333333333333 0  0.9333333333333333 -0.9333333333333333 0  1 -0.9333333333333333 0  -1 -0.8666666666666667 0  -0.9333333333333333 -0.8666666666666667 0  -0.8666666666666667 -0.8666666666666667 0  -0.8 -0.8666666666666667 0  -0.7333333333333334 -0.8666666666666667 0  -0.6666666666666667 -0.8666666666666667 0  -0.6 -0.8666666666666667 0  -0.5333333333333333 -0.8666666666666667 0  -0.4666666666666667 -0.8666666666666667 0  -0.4 -0.8666666666666667 0  -0.3333333333333334 -0.8666666666666667 0  -0.2666666666666667 -0.8666666666666667 0  -0.2 -0.8666666666666667 0  -0.1333333333333333 -0.8666666666666667 0  -0.06666666666666665 -0.8666666666666667 0  0 -0.8666666666666667 0  0.06666666666666665 -0.8666666666666667 0  0.1333333333333333 -0.8666666666666667 0  0.2 -0.8666666666666667 0  0.2666666666666666 -0.8666666666666667 0  0.3333333333333333 -0.8666666666666667 0  0.3999999999999999 -0.8666666666666667 0  0.4666666666666666 -0.8666666666666667 0  0.5333333333333334 -0.8666666666666667 0  0.6000000000000001 -0.8666666666666667 0  0.6666666666666667 -0.8666666666666667 0  0.7333333333333334 -0.8666666666666667 0  0.8 -0.8666666666666667 0  0.8666666666666667 -0.8666666666666667 0  0.9333333333333333 -0.8666666666666667 0  1 -0.8666666666666667 0  -1 -0.8 0  -0.9333333333333333 -0.8 0  -0.8666666666666667 -0.8 0  -0.8 -0.8 0  -0.7333333333333334 -0.8 0  -0.6666666666666667 -0.8 0  -0.6 -0.8 0  -0.5333333333333333 -0.8 0  -0.4666666666666667 -0.8 0  -0.4 -0.8 0  -0.3333333333333334 -0.8 0  -0.2666666666666667 -0.8 0  -0.2 -0.8 0  -0.1333333333333333 -0.8 0  -0.06666666666666665 -0.8 0  0 -0.8 0  0.06666666666666665 -0.8 0  0.1333333333333333 -0.8 0  0.2 -0.8 0  0.2666666666666666 -0.8 0  0.3333333333333333 -0.8 0  0.3999999999999999 -0.8 0  0.4666666666666666 -0.8 0  0.5333333333333334 -0.8 0  0.6000000000000001 -0.8 0  0.6666666666666667 -0.8 0  0.7333333333333334 -0.8 0  0.8 -0.8 0  0.8666666666666667 -0.8 0  0.9333333333333333 -0.8 0  1 -0.8 0  -1 -0.7333333333333334 0  -0.9333333333333333 -0.7333333333333334 0  -0.8666666666666667 -0.7333333333333334 0  -0.8 -0.7333333333333334 0  -0.7333333333333334 -0.7333333333333334 0  -0.6666666666666667 -0.7333333333333334 0  -0.6 -0.7333333333333334 0  -0.5333333333333333 -0.7333333333333334 0  -0.4666666666666667 -0.7333333333333334 0  -0.4 -0.7333333333333334 0  -0.3333333333333334 -0.7333333333333334 0  -0.2666666666666667 -0.7333333333333334 0  -0.2 -0.7333333333333334 0  -0.1333333333333333 -0.7333333333333334 0  -0.06666666666666665 -0.7333333333333334 0  0 -0.7333333333333334 0  0.06666666666666665 -0.7333333333333334 0  0.1333333333333333 -0.7333333333333334 0  0.2 -0.7333333333333334 0  0.2666666666666666 -0.7333333333333334 0  0.3333333333333333 -0.7333333333333334 0  0.3999999999999999 -0.7333333333333334 0  0.4666666666666666 -0.7333333333333334 0  0.5333333333333334 -0.7333333333333334 0  0.6000000000000001 -0.7333333333333334 0  0.6666666666666667 -0.7333333333333334 0  0.7333333333333334 -0.7333333333333334 0  0.8 -0.7333333333333334 0  0.8666666666666667 -0.7333333333333334 0  0.9333333333333333 -0.7333333333333334 0  1 -0.7333333333333334 0  -1 -0.6666666666666667 0  -0.9333333333333333 -0.6666666666666667 0  -0.8666666666666667 -0.6666666666666667 0  -0.8 -0.6666666666666667 0  -0.7333333333333334 -0.6666666666666667 0  -0.6666666666666667 -0.6666666666666667 0  -0.6 -0.6666666666666667 0  -0.5333333333333333 -0.6666666666666667 0  -0.4666666666666667 -0.6666666666666667 0  -0.4 -0.6666666666666667 0  -0.3333333333333334 -0.6666666666666667 0  -0.2666666666666667 -0.6666666666666667 0  -0.2 -0.6666666666666667 0  -0.1333333333333333 -0.6666666666666667 0  -0.06666666666666665 -0.6666666666666667 0  0 -0.6666666666666667 0  0.06666666666666665 -0.6666666666666667 0  0.1333333333333333 -0.6666666666666667 0  0.2 -0.6666666666666667 0  0.2666666666666666 -0.6666666666666667 0  0.3333333333333333 -0.6666666666666667 0  0.3999999999999999 -0.6666666666666667 0  0.4666666666666666 -0.6666666666666667 0  0.5333333333333334 -0.6666666666666667 0  0.6000000000000001 -0.6666666666666667 0  0.6666666666666667 -0.6666666666666667 0  0.7333333333333334 -0.6666666666666667 0  0.8 -0.6666666666666667 0  0.8666666666666667 -0.6666666666666667 0  0.9333333333333333 -0.6666666666666667 0  1 -0.6666666666666667 0  -1 -0.6 0  -0.9333333333333333 -0.6 0  -0.8666666666666667 -0.6 0  -0.8 -0.6 0  -0.7333333333333334 -0.6 0  -0.6666666666666667 -0.6 0  -0.6 -0.6 0  -0.5333333333333333 -0.6 0  -0.4666666666666667 -0.6 0  -0.4 -0.6 0  -0.3333333333333334 -0.6 0  -0.2666666666666667 -0.6 0  -0.2 -0.6 0  -0.1333333333333333 -0.6 0  -0.06666666666666665 -0.6 0  0 -0.6 0  0.06666666666666665 -0.6 0  0.1333333333333333 -0.6 0  0.2 -0.6 0  0.2666666666666666 -0.6 0  0.3333333333333333 -0.6 0  0.3999999999999999 -0.6 0  0.4666666666666666 -0.6 0  0.5333333333333334 -0.6 0  0.6000000000000001 -0.6 0  0.6666666666666667 -0.6 0  0.7333333333333334 -0.6 0  0.8 -0.6 0  0.8666666666666667 -0.6 0  0.9333333333333333 -0.6 0  1 -0.6 0  -1 -0.5333333333333333 0  -0.9333333333333333 -0.5333333333333333 0  -0.8666666666666667 -0.5333333333333333 0  -0.8 -0.5333333333333333 0  -0.7333333333333334 -0.5333333333333333 0  -0.6666666666666667 -0.5333333333333333 0  -0.6 -0.5333333333333333 0  -0.5333333333333333 -0.5333333333333333 0  -0.4666666666666667 -0.5333333333333333 0  -0.4 -0.5333333333333333 0  -0.3333333333333334 -0.5333333333333333 0  -0.2666666666666667 -0.5333333333333333 0  -0.2 -0.5333333333333333 0  -0.1333333333333333 -0.5333333333333333 0  -0.06666666666666665 -0.5333333333333333 0  0 -0.5333333333333333 0  0.06666666666666665 -0.5333333333333333 0  0.1333333333333333 -0.5333333333333333 0  0.2 -0.5333333333333333 0  0.2666666666666666 -0.5333333333333333 0  0.3333333333333333 -0.5333333333333333 0  0.3999999999999999 -0.5333333333333333 0  0.4666666666666666 -0.5333333333333333 0  0.5333333333333334 -0.5333333333333333 0  0.6000000000000001 -0.5333333333333333 0  0.6666666666666667 -0.5333333333333333 0  0.7333333333333334 -0.5333333333333333 0  0.8 -0.5333333333333333 0  0.8666666666666667 -0.5333333333333333 0  0.9333333333333333 -0.5333333333333333 0  1 -0.5333333333333333 0  -1 -0.4666666666666667 0  -0.9333333333333333 -0.4666666666666667 0  -0.8666666666666667 -0.4666666666666667 0  -0.8 -0.4666666666666667 0  -0.7333333333333334 -0.4666666666666667 0  -0.6666666666666667 -0.4666666666666667 0  -0.6 -0.4666666666666667 0  -0.5333333333333333 -0.4666666666666667 0  -0.4666666666666667 -0.4666666666666667 0  -0.4 -0.4666666666666667 0  -0.3333333333333334 -0.4666666666666667 0  -0.2666666666666667 -0.4666666666666667 0  -0.2 -0.4666666666666667 0  -0.1333333333333333 -0.4666666666666667 0  -0.06666666666666665 -0.4666666666666667 0  0 -0.4666666666666667 0  0.06666666666666665 -0.4666666666666667 0  0.1333333333333333 -0.4666666666666667 0  0.2 -0.4666666666666667 0  0.2666666666666666 -0.4666666666666667 0  0.3333333333333333 -0.4666666666666667 0  0.3999999999999999 -0.4666666666666667 0  0.4666666666666666 -0.4666666666666667 0  0.5333333333333334 -0.4666666666666667 0  0.6000000000000001 -0.4666666666666667 0  0.6666666666666667 -0.4666666666666667 0  0.7333333333333334 -0.4666666666666667 0  0.8 -0.4666666666666667 0  0.8666666666666667 -0.4666666666666667 0  0.9333333333333333 -0.4666666666666667 0  1 -0.4666666666666667 0  -1 -0.4 0  -0.9333333333333333 -0.4 0  -0.8666666666666667 -0.4 0  -0.8 -0.4 0  -0.7333333333333334 -0.4 0  -0.6666666666666667 -0.4 0  -0.6 -0.4 0  -0.5333333333333333 -0.4 0  -0.4666666666666667 -0.4 0  -0.4 -0.4 0  -0.3333333333333334 -0.4 0  -0.2666666666666667 -0.4 0  -0.2 -0.4 0  -0.1333333333333333 -0.4 0  -0.06666666666666665 -0.4 0  0 -0.4 0  0.06666666666666665 -0.4 0  0.1333333333333333 -0.4 0  0.2 -0.4 0  0.2666666666666666 -0.4 0  0.3333333333333333 -0.4 0  0.3999999999999999 -0.4 0  0.4666666666666666 -0.4 0  0.5333333333333334 -0.4 0  0.6000000000000001 -0.4 0  0.6666666666666667 -0.4 0  0.7333333333333334 -0.4 0 
[...]
<PointData  Scalars="f_24"> 
<DataArray  type="Float64"  Name="f_24"  format="ascii">0.0000000000000000e+00  0.0000000000000000e+00  0.0000000000000000e+00  0.0000000000000000e+00  0.0000000000000000e+00  0.0000000000000000e+00  0.0000000000000000e+00  0.0000000000000000e+00  0.0000000000000000e+00  0.0000000000000000e+00  0.0000000000000000e+00  0.0000000000000000e+00  0.0000000000000000e+00  0.0000000000000000e+00  0.0000000000000000e+00  0.0000000000000000e+00  0.0000000000000000e+00  0.0000000000000000e+00  0.0000000000000000e+00  0.0000000000000000e+00  0.0000000000000000e+00  0.0000000000000000e+00  0.0000000000000000e+00  0.0000000000000000e+00  0.0000000000000000e+00  0.0000000000000000e+00  0.0000000000000000e+00  0.0000000000000000e+00  0.0000000000000000e+00  0.0000000000000000e+00  1.4918301118495172e+01  0.0000000000000000e+00  -4.6549652040551862e-07  -2.9528073950814072e-06  -5.0105849224374155e-06  6.5244941234442314e-06  6.2752859515733298e-05  2.2047501399703894e-04  5.7191112468289544e-04  1.2578171277734700e-03  2.4858000458867556e-03  4.5562909054230110e-03  7.8996434075208257e-03  1.3129329478127333e-02  2.1118404559050032e-02  3.3109598611264397e-02  5.0873913627757499e-02  7.6938881426766997e-02  1.1491600456606076e-01  1.6996742148205191e-01  2.4946385552524672e-01  3.6389760788973646e-01  5.2812279084054381e-01  7.6299829904550120e-01  1.0975145925531520e+00  1.5715327288715293e+00  2.2394788256074980e+00  3.1760686875249369e+00  4.4872709954918975e+00  6.3358118201766169e+00  9.0091598259130929e+00  1.3026457942457265e+01  0.0000000000000000e+00  -8.1692650760458923e-07  -5.1376082974161952e-06  -1.1533811880967218e-05  -8.0855770878804761e-06  3.0456013404818916e-05  1.4183214307502673e-04  3.7387610364699933e-04  7.8173411367241606e-04  1.4254121117492854e-03  2.3680531675233079e-03  3.6752814078926856e-03  5.4161748941457975e-03  7.6670917701723391e-03  1.0520974224869117e-02  1.4107491229889357e-02  1.8634573249171373e-02  2.4471539538755888e-02  3.2311496555525995e-02  4.3481262506591976e-02  6.0518084322398559e-02  8.8212614943254275e-02  1.3543629146744576e-01  2.1824259417222103e-01  3.6500293771610176e-01  6.2489651870271867e-01  1.0825415976499444e+00  1.8860060534272221e+00  3.3096585013929412e+00  5.9261375235953313e+00  1.1320522583073789e+01  0.0000000000000000e+00  -1.0649524987609581e-06  -6.5679865680946280e-06  -1.6958663326875452e-05  -2.5823006933961160e-05  -2.1985151662865823e-05  4.4193551098073199e-06  5.6130305872096883e-05  1.2495633684091615e-04  1.9025844463463866e-04  2.1917538051017843e-04  1.6778617118151499e-04  -1.7551954967151321e-05  -3.9931407939569732e-04  -1.0488668401612427e-03  -2.0478449829824000e-03  -3.4908047789062248e-03  -5.4875762740422742e-03  -8.1587804571303206e-03  -1.1603966630958976e-02  -1.5786115398596139e-02  -2.0193535714568327e-02  -2.2966145908376590e-02  -1.8839139649697387e-02  5.3471572983064030e-03  7.9936283178792172e-02  2.7134207657809517e-01  7.2169873065597467e-01  1.7410896301388550e+00  4.0638396659140632e+00  9.7878973638446833e+00  0.0000000000000000e+00  -1.1993595337037778e-06  -7.0044784925417368e-06  -1.8575904842778582e-05  -3.2314132414184776e-05  -4.3327928398701328e-05  -5.0459533233215503e-05  -5.8091785133188834e-05  -7.4389280717957365e-05  -1.0752502952316352e-04  -1.6173121538683974e-04  -2.3438096890016530e-04  -3.1456591133615275e-04  -3.8313937020414290e-04  -4.1404954567348149e-04  -3.7698908458572118e-04  -2.4199047331885588e-04  1.2180986168832869e-05  3.8177749203173559e-04  8.0678504285145553e-04  1.1166222260370056e-03  9.6146994118441410e-04  -1.7965930145259258e-04  -2.5532635180334344e-03  -4.1796269273739984e-03  5.3240507590614130e-03  6.1532651217563503e-02  2.6838722166356838e-01  9.1032830732645265e-01  2.7785101589302754e+00  8.4164266320067291e+00  0.0000000000000000e+00  -1.2181173117917347e-06  -6.5483735501470075e-06  -1.6724633759916506e-05  -2.8510249450497445e-05  -3.8151883628468621e-05  -4.4662249995257277e-05  -4.9403974436549382e-05  -5.3594755349648750e-05  -5.6233249075953644e-05  -5.3817075591351446e-05  -4.1766746318673487e-05  -1.6702621384827423e-05  2.1357865466549829e-05  6.7530246356399865e-05  1.1164157875550471e-04  1.3897223334632212e-04  1.3215084418290109e-04  7.3775110107087040e-05  -5.2615163051694390e-05  -2.7227141647885854e-04  -6.6545993745709337e-04  -1.4995049899176492e-03  -3.4649575406601068e-03  -7.6816607579522876e-03  -1.3723557094550882e-02  -9.4231789626071909e-03  6.5754162915540690e-02  4.3892978294449547e-01  1.8818625522899803e+00  7.1943967585335526e+00  0.0000000000000000e+00  -1.1397367435596673e-06  -5.5450957446543112e-06  -1.3167652177609153e-05  -2.0644240976572366e-05  -2.4735283381637379e-05  -2.4706627896139912e-05  -2.1490623603389151e-05  -1.6035422633150378e-05  -8.7502910676515612e-06  -1.2796591268218241e-07  8.4384941989229899e-06  1.4496096013183950e-05  1.5258226701215827e-05  8.9216466053881289e-06  -3.9108201540040437e-06  -1.9097984947116387e-05  -2.8254795515121930e-05  -1.8171445069066568e-05  3.0717677535665102e-05  1.4867467815528226e-04  3.8226297657409218e-04  7.7419668172305854e-04  1.2085835850959427e-03  9.0581230460135280e-04  -2.1796621733845526e-03  -8.5633248685530825e-03  6.5979972642328149e-03  1.9910800967966669e-01  1.2646812445411726e+00  6.1105361381356236e+00  0.0000000000000000e+00  -9.9738596586859882e-07  -4.3563302069111921e-06  -9.4403744798791835e-06  -1.3178661368549365e-05  -1.3394153100230287e-05  -1.0422941508548346e-05  -5.9311057446545823e-06  -1.4764589752297858e-06  1.9244757369700679e-06  3.6246902392323916e-06  3.2999565250285276e-06  1.1817975511561420e-06  -1.7442433539020388e-06  -3.9211895928766522e-06  -3.8795470779478251e-06  -1.2209699160586890e-06  2.3179517475255040e-06  1.9067265003167286e-06  -1.1087240691210429e-05  -4.8707995825417881e-05  -1.2050958114633046e-04  -2.1061396877959104e-04  -2.4792915191319939e-04  -2.5144123999965625e-04  -1.3035221931130268e-03  -6.9411164619584027e-03  -1.4397313797320855e-02  6.8361730705365914e-02  8.2256406277659777e-01  5.1540151892602548e+00  0.0000000000000000e+00  -8.2616577456853610e-07  -3.2324138682104399e-06  -6.3364983441888140e-06  -7.7388942606528732e-06  -6.4198654399665203e-06  -3.4910933129801118e-06  -6.6715211051785939e-07  1.0110481762378445e-06  1.3713585863624187e-06  7.8366581249456759e-07  -1.4190535248332905e-07  -7.7776568515666015e-07  -7.1939662894796592e-07  -2.8803772889622304e-09  8.6719822771570934e-07  1.2069882786006309e-06  7.4708375805247694e-07  3.8062484984341044e-07  2.7765382931127586e-06  1.2209366431813589e-05  3.2466539392818446e-05  6.5561297066676249e-05  1.4223127546083021e-04  4.0613232581208214e-04  8.9290475014615822e-04  -8.8745231094050820e-04  -1.0854963700612050e-02  1.0637948733017811e-02  5.2359747100540577e-01  4.3144463540916131e+00  0.0000000000000000e+00  -6.5396512842929878e-07  -2.2956412996091231e-06  -4.0613731815439974e-06  -4.3033697556318144e-06  -2.8176676361692902e-06  -8.6364819838002960e-07  3.8017162583363872e-07  6.3963074933400461e-07  3.0610608526839998e-07  -1.0098452711809388e-07  -2.6046534404345427e-07  -1.3358580393742877e-07  1.0043606351690705e-07  2.0115950050029641e-07  5.3332373603809502e-08  -2.2957443855373327e-07  -3.9598843552799526e-07  -3.7180803325408231e-07  -6.9932569037518746e-07  -2.8460197290241949e-06  -9.4931140606894369e-06  -2.7754676874083810e-05  -8.1264680194782009e-05  -1.4485137810969786e-04  3.0074280294937035e-05  5.3933098271658586e-05  -7.4861603803052902e-03  -1.4834899085857342e-02  3.1166585472168040e-01  3.5818840985506903e+00  0.0000000000000000e+00  -4.9836026054591487e-07  -1.5758962845543355e-06  -2.5219756355374758e-06  -2.3162215509874363e-06  -1.1598162670378955e-06  -7.7492787611849974e-08  3.3086454752691258e-07  2.1105146958435232e-07  -1.7711036098568338e-08  -1.0314087112250078e-07  -4.4243541335787212e-08  3.8101165303909751e-08  4.9530957570377592e-08  -5.9144366510898322e-09  -4.8999461312409857e-08  -1.2653868377309109e-08  8.2384777871072342e-08  1.5219215014520181e-07  2.1930207212776646e-07  6.9006740915159593e-07  3.0550050020684340e-06  1.1402608166343759e-05  2.9865827123334877e-05  2.0378418687466201e-05  1.3693415020163248e-04  7.8638902226447983e-04  -2.1164729259829829e-03  -2.0373935926542963e-02  1.7355632093067758e-01  2.9468249122953440e+00  0.0000000000000000e+00  -3.6766928884665953e-07  -1.0532172547223345e-06  -1.5335667406727587e-06  -1.2285781357712684e-06  -4.5780033105271549e-07  8.2077288024333536e-08  1.6735223022746314e-07  3.9791255400134183e-08  -4.3125519736773160e-08  -2.8978178728692105e-08  1.0291159846015939e-08  1.7410957797173292e-08  -1.7690513786124651e-09  -1.2476344196597240e-08  -7.6701796040715444e-10  1.1945723559078359e-08  -1.6416788431799266e-09  -3.7036131702344090e-08  -7.1978147812838176e-08  -1.7328722368727303e-07  -1.0559929827211766e-06  -3.6866909373164450e-06  -7.9799301491347227e-06  -1.7771655191946178e-05  -1.2870524119746807e-04  3.4043290236825141e-04  -1.5101959715768798e-04  -1.8334227131165833e-02  7.9951979901334111e-02  2.4002073087202582e+00  0.0000000000000000e+00  -2.6365831920355182e-07  -6.8878754961916257e-07  -9.2037455636313090e-07  -6.5220490295326589e-07  -1.7857420904718830e-07  7.6979494573041965e-08  7.0241213051424117e-08  -2.6898406024630085e-09  -2.1283594858868112e-08  -2.3395854231022822e-09  7.7092348293746164e-09  1.5077053689741257e-09  -3.8403450352972509e-09  -7.4796138163587210e-10  2.8295977116524779e-09  1.3487109926593618e-10  -2.7493842596519694e-09  3.9007585909949343e-09  1.8947208797285380e-08  3.8649996199330209e-08  4.2173381218166481e-07  4.8382259100908700e-07  3.9357470402886500e-06  1.2524386340981253e-05  -7.2107878946161021e-06  6.5742378932244884e-05  1.3068932769613579e-03  -1.3090646112656618e-02  2.3272241936942110e-02  1.9334118249569743e+00  0.0000000000000000e+00  -1.8427203194030610e-07  -4.4228432411256123e-07  -5.4815870938865962e-07  -3.5106476197643537e-07  -7.2444773462362339e-08  4.7824279210177652e-08  2.7687550949145504e-08  -6.7839830650347580e-09  -7.6441941353963533e-09  1.7280109358332391e-09  2.3552353342687271e-09  -8.6733229928869731e-10  -8.3847123853918130e-10  6.4689996726960137e-10  2.6951234876102014e-10  -6.1503478897759456e-10  7.3097853139614807e-11  7.3007159800580055e-10  -4.1078540784911742e-09  -1.7954717120348852e-09  -1.9554319368209049e-07  4.2152338689662549e-07  -3.8117046301816059e-06  5.2115170309585839e-06  -2.1234257738700821e-05  -1.0554197543354829e-04  1.1453432071532573e-03  -7.5870743341018825e-03  -1.1219390184995929e-02  1.5382610218738706e+00  0.0000000000000000e+00  -1.2570939074194299e-07  -2.7939376384518759e-07  -3.2508174933349518e-07  -1.9348477675798315e-07  -3.3034425469220548e-08  2.5903466054357426e-08  1.1344135595460733e-08  -4.1142688816379050e-09  -2.5159190899562095e-09  1.1162929292723446e-09  4.9774001775802587e-10  -4.3656314309624314e-10  -3.0136178624416669e-11  1.9009775860261274e-10  -9.5164119748788167e-11  -5.5018286327391902e-11  2.6734465482368726e-10  -1.1015543620805271e-09  4.3575795145929806e-09  -1.6121778411992255e-08  1.1616754830191330e-07  -3.8930114560711526e-07  2.1176428661240540e-06  -6.0371869207715000e-06  3.4425614475492709e-05  -1.5516024481747724e-04  8.9587735625488844e-04  -3.0936429965754708e-03  -2.8465881202800056e-02  1.2070194840761723e+00  0.0000000000000000e+00  -8.3746235830552657e-08  -1.7375300963027186e-07  -1.9223266352569874e-07  -1.0974079692683126e-07  -1.8119478871512741e-08  1.3090346805666170e-08  5.2867900257768584e-09  -1.8659016127873462e-09  -9.2171147586691854e-10  4.3592747108250336e-10  1.0344043533733553e-10  -1.1660535566286213e-10  -4.8265257821948360e-12  1.1601590864180531e-10  -2.9655001124686695e-10  7.5270937322531345e-10  -2.0603644465657168e-09  6.3430135712778873e-09  -2.0738782980600191e-08  6.7913617066559659e-08  -2.1820306563930289e-07  5.8567336928875980e-07  -1.4130795182599549e-06  1.1879923017966044e-06  5.4422611874225969e-06  -6.6236493852159817e-05  2.9203095755812419e-04  1.6068634013523367e-04  -3.5629193680490466e-02  9.3239381990594827e-01  0.0000000000000000e+00  -5.4452446005550382e-08  -1.0632612473894152e-07  -1.1328758022313597e-07  -6.4016883293904361e-08  -1.1868082228930288e-08  6.1875120570680454e-09  2.8703226462728831e-09  -6.6635726318369933e-10  -4.1665155029528991e-10  1.1890734036542528e-10  4.9029035691701349e-11  -2.1967362054451867e-11  -9.1562962704460635e-11  4.4996953740883152e-10  -1.5964185373630804e-09  5.0002090594769187e-09  -1.4348476224272866e-08  3.7713949220175808e-08  -9.0206054416593638e-08  1.9508045136997628e-07  -3.7971877411475572e-07  6.7622629112468109e-07  -1.0919911689083859e-06  1.8249359778171414e-06  -2.2919347635956018e-06  8.5285429185755383e-06  -1.0971706412650189e-04  2.0755753889194336e-03  -3.5798196782517847e-02  7.0753266144211180e-01  0.0000000000000000e+00  -3.4502626883838714e-08  -6.3918618977319580e-08  -6.6377847296723015e-08  -3.8173751790450245e-08  -8.6296465986392151e-09  2.5550609792878797e-09  1.7002690268615506e-09  -1.0951171056882978e-10  -2.0660783354117101e-10  -6.2125985516097270e-12  6.2527471580675475e-11  -5.5251343038477162e-11  -8.2774603347132836e-11  7.9980468138841152e-10  -3.3494283597992170e-09  1.0846057018297551e-08  -3.0438464590255637e-08  7.8240378909524417e-08  -1.9132437041802912e-07  4.5641390373189879e-07  -1.0746214246891149e-06  2.5018201178722304e-06  -5.7852150464135688e-06  1.3484564627502871e-05  -3.3681067153485428e-05  9.9633616828204575e-05  -4.3018850914141622e-04  2.9946850149399754e-03  -3.2328654768013457e-02  5.2602666450042057e-01  0.0000000000000000e+00  -2.1248363696226125e-08  -3.7640100248271852e-08  -3.8506297655070380e-08  -2.3027851282494777e-08  -6.4819255667124332e-09  6.6861378746706363e-10  9.8874344763190733e-10  1.1910737941233029e-10  -9.2832419199330932e-11  -3.3209191879241091e-11  6.9607335338536033e-11  -1.4753778161932509e-10  1.6703754616926914e-10  3.1961023429656365e-10  -2.6304683544376298e-09  1.0170427593313277e-08  -3.1051290060007312e-08  8.3484927642833787e-08  -2.0672507540347297e-07  4.8531860288882213e-07  -1.1109280336597906e-06  2.5559807496269201e-06  -6.0865955294323956e-06  1.5406697941050373e-05  -4.2663340162944187e-05  1.3666663449674667e-04  -5.5158109312927717e-04  3.1366967825164137e-03  -2.6927167555627032e-02  3.8190850863347647e-01  0.0000000000000000e+00  -1.2669093783464957e-08  -2.1620547456967227e-08  -2.1984467117746990e-08  -1.3869847007967083e-08  -4.8095408494786593e-09  -2.6223029337371427e-10  4.9652991944556265e-10  1.7354529073025709e-10  -2.7901876864774116e-11  1.8531301125536838e-12  8.3273543854930274e-12  -1.2423949198524588e-10  3.7219912642601290e-10  -6.7086926262567640e-10  4.0191440049279850e-10  2.6912487191858180e-09  -1.5200983225555238e-08  5.4503588140595562e-08  -1.6393574078846216e-07  4.4776784443121373e-07  -1.1522648443193381e-06  2.8659559848912033e-06  -7.0747856365932318e-06  1.7919926112322399e-05  -4.8638790359362881e-05  1.4957631568769255e-04  -5.6194492562435059e-04  2.8256271540826280e-03  -2.1047274539724180e-02  2.6965289713072582e-01  0.0000000000000000e+00  -7.2734816866451588e-09  -1.2042256265089769e-08  -1.2256667224214354e-08  -8.2203795885484557e-09  -3.4363005750337262e-09  -6.4462275641322336e-10  1.5603449851283355e-10  1.3046264762285412e-10  1.5428144455303564e-11  3.3430478049735248e-11  -7.4460830187273492e-11  6.6916826133491380e-11  1.0143603577071192e-10  -6.5118147480920508e-10  1.7343874828248784e-09  -2.8583362456020800e-09  1.2484651479893452e-09  1.2254294417576272e-08  -6.3308564498871709e-08  2.1985126460747351e-07  -6.6007423417222463e-07  1.8566135074907407e-06  -5.0995627024450801e-06  1.4118461371393787e-05  -4.0812981381055103e-05  1.2920472542650525e-04  -4.7856982279140020e-04  2.2687086578859232e-03  -1.5454089356410503e-02  1.8417655701845900e-01  0.0000000000000000e+00  -3.9907619430234696e-09  -6.4516761088314151e-09  -6.6063276986330402e-09  -4.7199778889476161e-09  -2.3226003180388710e-09  -7.0673536072595386e-10  -5.6753107501041419e-11  5.1804585767980274e-11  4.0241813659390910e-11  1.0248889726107530e-11  -5.0541776092947738e-11  1.5227310649835779e-10  -2.7417825698422494e-10  2.3315438584068491e-10  4.0567002947906774e-10  -2.2674114730325437e-09  5.3818166378985289e-09  -6.3757260821010240e-09  -9.3400251301483752e-09  8.7465048334305638e-08  -3.5559566917565149e-07  1.1603526403717061e-06  -3.4663893147368178e-06  1.0119621579648025e-05  -3.0300976452918516e-05  9.7689916091251786e-05  -3.6033021626393494e-04  1.6529703779481248e-03  -1.0644985923318528e-02  1.2083823905981096e-01  0.0000000000000000e+00  -2.0710597279389578e-09  -3.2883113484393730e-09  -3.3988131818483333e-09  -2.5812029294248735e-09  -1.4606360946800965e-09  -5.9767610294113108e-10  -1.5856599334688285e-10  -1.1363992016566776e-11  2.5692729238840068e-11  -1.9531668504807076e-11  4.0475824686184516e-11  2.5689329496161645e-12  -1.5916089967642747e-10  4.7676242910559378e-10  -8.1024372401378723e-10  5.3181180330880538e-10  1.8142481960055616e-09  -8.3477239472475468e-09  1.9371329973518132e-08  -2.3509523006323746e-08  -3.3132758450053875e-08  3.3710681013701017e-07  -1.4759729757697395e-06  5.2955597303421268e-06  -1.7936424961673675e-05  6.2145804376749164e-05  -2.3698832386779127e-04  1.0868593648105010e-03  -6.8157534208089536e-03  7.5438717754760826e-02  0.0000000000000000e+00  -1.0019829218297209e-09  -1.5701698431006889e-09  -1.6412878407253170e-09  -1.3180480688895746e-09  -8.3867189305963231e-10  -4.2368568546770852e-10  -1.7065308519342268e-10  -4.3621160691478632e-11  -1.3591664667520797e-11  -2.8817453187513921e-12  3.8647379399917808e-11  -9.0079283624100851e-11  1.2409641600430112e-10  -1.5714116568293005e-11  -4.1307891013535072e-10  1.2597314681641774e-09  -2.1683329741759869e-09  1.7608556501773615e-09  2.6510278102983041e-09  -1.3018705687760951e-08  1.9253374516728172e-08  4.3312517475527467e-08  -4.3868295771145319e-07  2.1240203936254314e-06  -8.5510664030846503e-06  3.3051069414358124e-05  -1.3458317942538270e-04  6.3596265348842473e-04  -3.9963007506527270e-03  4.4220791340131953e-02  0.0000000000000000e+00  -4.4259712993927020e-10  -6.8712981412620165e-10  -7.2693335870072928e-10  -6.1282069191253549e-10  -4.2956748846086021e-10  -2.5439772539360182e-10  -1.2892931242571812e-10  -5.2540395253483588e-11  -2.9807771998289356e-11  1.3040234932491314e-11  -2.4974159336274383e-11  -2.4645545753113275e-12  8.5934142587725933e-11  -2.2132250977704309e-10  2.9695460970780037e-10  -5.5187582208063401e-11  -7.6774740027917931e-10  1.8841638834124085e-09  -1.2874828557571581e-09  -6.2302168044304354e-09  2.8684222688528895e-08  -6.5744110700736287e-08  5.4060892122340584e-08  3.5359355244248355e-07  -2.6697739065020473e-06  1.3361513482610669e-05  -6.2623417763099789e-05  3.1999748071427707e-04  -2.0901296729149590e-03  2.3869281789592255e-02  0.0000000000000000e+00  -1.7303556857930563e-10  -2.6664366170183156e-10  -2.8542974419793969e-10  -2.5054328633138499e-10  -1.9011962017234008e-10  -1.2631010061297494e-10  -7.5439837154489631e-11  -4.1398954490228310e-11  -1.9637528493073930e-11  -3.6699610325301067e-12  -2.6186373397074533e-11  4.6848196428405109e-11  -6.1154800155227094e-11  3.5063103733374539e-12  1.7278828509213830e-10  -4.0096623852276287e-10  2.9694435902598045e-10  9.4971829262805635e-10  -4.1968516363135268e-09  8.8082470214797873e-09  -9.4206259244554992e-09  -7.7551451375064110e-09  5.9711561483985462e-08  -1.0833169309675655e-07  -2.5053249749331973e-07  3.3190212510644652e-06  -2.1467902939817018e-05  1.2965875641351602e-04  -9.3187308569768143e-04  1.1511034813653672e-02  0.0000000000000000e+00  -5.7033540964877657e-11  -8.7062605692541218e-11  -9.4130076832556027e-11  -8.5422247030097780e-11  -6.8997900124669208e-11  -4.9538410044