<?xml version="1.0"?>
<VTKFile type="UnstructuredGrid"  version="0.1"  >
<UnstructuredGrid>
<Piece  NumberOfPoints="961" NumberOfCells="1800">
<Points>
<DataArray  type="Float64"  NumberOfComponents="3"  format="ascii">-1 -1 0  -0.9333333333333333 -1 0  -0.8666666666666667 -1 0  -0.8 -1 0  -0.7333333333333334 -1 0  -0.6666666666666667 -1 0  -0.6 -1 0  -0.5333333333333333 -1 0  -0.4666666666666667 -1 0  -0.4 -1 0  -0.3333333333333334 -1 0  -0.2666666666666667 -1 0  -0.2 -1 0  -0.1333333333333333 -1 0  -0.06666666666666665 -1 0  0 -1 0  0.06666666666666665 -1 0  0.1333333333333333 -1 0  0.2 -1 0  0.2666666666666666 -1 0  0.3333333333333333 -1 0  0.3999999999999999 -1 0  0.4666666666666666 -1 0  0.5333333333333334 -1 0  0.6000000000000001 -1 0  0.6666666666666667 -1 0  0.7333333333333334 -1 0  0.8 -1 0  0.8666666666666667 -1 0  0.9333333333333333 -1 0  1 -1 0  -1 -0.9333333333333333 0  -0.9333333333333333 -0.9333333333333333 0  -0.8666666666666667 -0.9333333333333333 0  -0.8 -0.9333333333333333 0  -0.7333333333333334 -0.9333333333333333 0  -0.6666666666666667 -0.9333333333333333 0  -0.6 -0.9333333333333333 0  -0.5333333333333333 -0.9333333333333333 0  -0.4666666666666667 -0.9333333333333333 0  -0.4 -0.9333333333333333 0  -0.3333333333333334 -0.9333333333333333 0  -0.2666666666666667 -0.9333333333333333 0  -0.2 -0.9333333333333333 0  -0.1333333333333333 -0.9333333333333333 0  -0.06666666666666665 -0.9333333333333333 0  0 -0.9333333333333333 0  0.06666666666666665 -0.9333333333333333 0  0.1333333333333333 -0.9333333333333333 0  0.2 -0.9333333333333333 0  0.2666666666666666 -0.9333333333333333 0  0.3333333333333333 -0.9333333333333333 0  0.3999999999999999 -0.9333333333333333 0  0.4666666666666666 -0.9333333333333333 0  0.5333333333333334 -0.9333333333333333 0  0.6000000000000001 -0.9333333333333333 0  0.6666666666666667 -0.9333333333333333 0  0.7333333333333334 -0.9333333333333333 0  0.8 -0.9333333333333333 0  0.8666666666666667 -0.9333333333333333 0  0.9333333333333333 -0.9333333333333333 0  1 -0.9333333333333333 0  -1 -0.8666666666666667 0  -0.9333333333333333 -0.8666666666666667 0  -0.8666666666666667 -0.8666666666666667 0  -0.8 -0.8666666666666667 0  -0.7333333333333334 -0.8666666666666667 0  -0.6666666666666667 -0.8666666666666667 0  -0.6 -0.8666666666666667 0  -0.5333333333333333 -0.8666666666666667 0  -0.4666666666666667 -0.8666666666666667 0  -0.4 -0.8666666666666667 0  -0.3333333333333334 -0.8666666666666667 0  -0.2666666666666667 -0.8666666666666667 0  -0.2 -0.8666666666666667 0  -0.1333333333333333 -0.8666666666666667 0  -0.06666666666666665 -0.8666666666666667 0  0 -0.8666666666666667 0  0.06666666666666665 -0.8666666666666667 0  0.1333333333333333 -0.8666666666666667 0  0.2 -0.8666666666666667 0  0.2666666666666666 -0.8666666666666667 0  0.3333333333333333 -0.8666666666666667 0  0.3999999999999999 -0.8666666666666667 0  0.4666666666666666 -0.8666666666666667 0  0.5333333333333334 -0.8666666666666667 0  0.6000000000000001 -0.8666666666666667 0  0.6666666666666667 -0.8666666666666667 0  0.7333333333333334 -0.8666666666666667 0  0.8 -0.8666666666666667 0  0.8666666666666667 -0.8666666666666667 0  0.9333333333333333 -0.8666666666666667 0  1 -0.8666666666666667 0  -1 -0.8 0  -0.9333333333333333 -0.8 0  -0.8666666666666667 -0.8 0  -0.8 -0.8 0  -0.7333333333333334 -0.8 0  -0.6666666666666667 -0.8 0  -0.6 -0.8 0  -0.5333333333333333 -0.8 0  -0.4666666666666667 -0.8 0  -0.4 -0.8 0  -0.3333333333333334 -0.8 0  -0.2666666666666667 -0.8 0  -0.2 -0.8 0  -0.1333333333333333 -0.8 0  -0.06666666666666665 -0.8 0  0 -0.8 0  0.06666666666666665 -0.8 0  0.1333333333333333 -0.8 0  0.2 -0.8 0  0.2666666666666666 -0.8 0  0.3333333333333333 -0.8 0  0.3999999999999999 -0.8 0  0.4666666666666666 -0.8 0  0.5333333333333334 -0.8 0  0.6000000000000001 -0.8 0  0.6666666666666667 -0.8 0  0.7333333333333334 -0.8 0  0.8 -0.8 0  0.8666666666666667 -0.8 0  0.9333333333333333 -0.8 0  1 -0.8 0  -1 -0.7333333333333334 0  -0.9333333333333333 -0.7333333333333334 0  -0.8666666666666667 -0.7333333333333334 0  -0.8 -0.7333333333333334 0  -0.7333333333333334 -0.7333333333333334 0  -0.6666666666666667 -0.7333333333333334 0  -0.6 -0.7333333333333334 0  -0.5333333333333333 -0.7333333333333334 0  -0.4666666666666667 -0.7333333333333334 0  -0.4 -0.7333333333333334 0  -0.3333333333333334 -0.7333333333333334 0  -0.2666666666666667 -0.7333333333333334 0  -0.2 -0.7333333333333334 0  -0.1333333333333333 -0.7333333333333334 0  -0.06666666666666665 -0.7333333333333334 0  0 -0.7333333333333334 0  0.06666666666666665 -0.7333333333333334 0  0.1333333333333333 -0.7333333333333334 0  0.2 -0.7333333333333334 0  0.2666666666666666 -0.7333333333333334 0  0.3333333333333333 -0.7333333333333334 0  0.3999999999999999 -0.7333333333333334 0  0.4666666666666666 -0.7333333333333334 0  0.5333333333333334 -0.7333333333333334 0  0.6000000000000001 -0.7333333333333334 0  0.6666666666666667 -0.7333333333333334 0  0.7333333333333334 -0.7333333333333334 0  0.8 -0.7333333333333334 0  0.8666666666666667 -0.7333333333333334 0  0.9333333333333333 -0.7333333333333334 0  1 -0.7333333333333334 0  -1 -0.6666666666666667 0  -0.9333333333333333 -0.6666666666666667 0  -0.8666666666666667 -0.6666666666666667 0  -0.8 -0.6666666666666667 0  -0.7333333333333334 -0.6666666666666667 0  -0.6666666666666667 -0.6666666666666667 0  -0.6 -0.6666666666666667 0  -0.5333333333333333 -0.6666666666666667 0  -0.4666666666666667 -0.6666666666666667 0  -0.4 -0.6666666666666667 0  -0.3333333333333334 -0.6666666666666667 0  -0.2666666666666667 -0.6666666666666667 0  -0.2 -0.6666666666666667 0  -0.1333333333333333 -0.6666666666666667 0  -0.06666666666666665 -0.6666666666666667 0  0 -0.6666666666666667 0  0.06666666666666665 -0.6666666666666667 0  0.1333333333333333 -0.6666666666666667 0  0.2 -0.6666666666666667 0  0.2666666666666666 -0.6666666666666667 0  0.3333333333333333 -0.6666666666666667 0  0.3999999999999999 -0.6666666666666667 0  0.4666666666666666 -0.6666666666666667 0  0.5333333333333334 -0.6666666666666667 0  0.6000000000000001 -0.6666666666666667 0  0.6666666666666667 -0.6666666666666667 0  0.7333333333333334 -0.6666666666666667 0  0.8 -0.6666666666666667 0  0.8666666666666667 -0.6666666666666667 0  0.9333333333333333 -0.6666666666666667 0  1 -0.6666666666666667 0  -1 -0.6 0  -0.9333333333333333 -0.6 0  -0.8666666666666667 -0.6 0  -0.8 -0.6 0  -0.7333333333333334 -0.6 0  -0.6666666666666667 -0.6 0  -0.6 -0.6 0  -0.5333333333333333 -0.6 0  -0.4666666666666667 -0.6 0  -0.4 -0.6 0  -0.3333333333333334 -0.6 0  -0.2666666666666667 -0.6 0  -0.2 -0.6 0  -0.1333333333333333 -0.6 0  -0.06666666666666665 -0.6 0  0 -0.6 0  0.06666666666666665 -0.6 0  0.1333333333333333 -0.6 0  0.2 -0.6 0  0.2666666666666666 -0.6 0  0.3333333333333333 -0.6 0  0.3999999999999999 -0.6 0  0.4666666666666666 -0.6 0  0.5333333333333334 -0.6 0  0.6000000000000001 -0.6 0  0.6666666666666667 -0.6 0  0.7333333333333334 -0.6 0  0.8 -0.6 0  0.8666666666666667 -0.6 0  0.9333333333333333 -0.6 0  1 -0.6 0  -1 -0.5333333333333333 0  -0.9333333333333333 -0.5333333333333333 0  -0.8666666666666667 -0.5333333333333333 0  -0.8 -0.5333333333333333 0  -0.7333333333333334 -0.5333333333333333 0  -0.6666666666666667 -0.5333333333333333 0  -0.6 -0.5333333333333333 0  -0.5333333333333333 -0.5333333333333333 0  -0.4666666666666667 -0.5333333333333333 0  -0.4 -0.5333333333333333 0  -0.3333333333333334 -0.5333333333333333 0  -0.2666666666666667 -0.5333333333333333 0  -0.2 -0.5333333333333333 0  -0.1333333333333333 -0.5333333333333333 0  -0.06666666666666665 -0.5333333333333333 0  0 -0.5333333333333333 0  0.06666666666666665 -0.5333333333333333 0  0.1333333333333333 -0.5333333333333333 0  0.2 -0.5333333333333333 0  0.2666666666666666 -0.5333333333333333 0  0.3333333333333333 -0.5333333333333333 0  0.3999999999999999 -0.5333333333333333 0  0.4666666666666666 -0.5333333333333333 0  0.5333333333333334 -0.5333333333333333 0  0.6000000000000001 -0.5333333333333333 0  0.6666666666666667 -0.5333333333333333 0  0.7333333333333334 -0.5333333333333333 0  0.8 -0.5333333333333333 0  0.8666666666666667 -0.5333333333333333 0  0.9333333333333333 -0.5333333333333333 0  1 -0.5333333333333333 0  -1 -0.4666666666666667 0  -0.9333333333333333 -0.4666666666666667 0  -0.8666666666666667 -0.4666666666666667 0  -0.8 -0.4666666666666667 0  -0.7333333333333334 -0.4666666666666667 0  -0.6666666666666667 -0.4666666666666667 0  -0.6 -0.4666666666666667 0  -0.5333333333333333 -0.4666666666666667 0  -0.4666666666666667 -0.4666666666666667 0  -0.4 -0.4666666666666667 0  -0.3333333333333334 -0.4666666666666667 0  -0.2666666666666667 -0.4666666666666667 0  -0.2 -0.4666666666666667 0  -0.1333333333333333 -0.4666666666666667 0  -0.06666666666666665 -0.4666666666666667 0  0 -0.4666666666666667 0  0.06666666666666665 -0.4666666666666667 0  0.1333333333333333 -0.4666666666666667 0  0.2 -0.4666666666666667 0  0.2666666666666666 -0.4666666666666667 0  0.3333333333333333 -0.4666666666666667 0  0.3999999999999999 -0.4666666666666667 0  0.4666666666666666 -0.4666666666666667 0  0.5333333333333334 -0.4666666666666667 0  0.6000000000000001 -0.4666666666666667 0  0.6666666666666667 -0.4666666666666667 0  0.7333333333333334 -0.4666666666666667 0  0.8 -0.4666666666666667 0  0.8666666666666667 -0.4666666666666667 0  0.9333333333333333 -0.4666666666666667 0  1 -0.4666666666666667 0  -1 -0.4 0  -0.9333333333333333 -0.4 0  -0.8666666666666667 -0.4 0  -0.8 -0.4 0  -0.7333333333333334 -0.4 0  -0.6666666666666667 -0.4 0  -0.6 -0.4 0  -0.5333333333333333 -0.4 0  -0.4666666666666667 -0.4 0  -0.4 -0.4 0  -0.3333333333333334 -0.4 0  -0.2666666666666667 -0.4 0  -0.2 -0.4 0  -0.1333333333333333 -0.4 0  -0.06666666666666665 -0.4 0  0 -0.4 0  0.06666666666666665 -0.4 0  0.1333333333333333 -0.4 0  0.2 -0.4 0  0.2666666666666666 -0.4 0  0.3333333333333333 -0.4 0  0.3999999999999999 -0.4 0  0.4666666666666666 -0.4 0  0.5333333333333334 -0.4 0  0.6000000000000001 -0.4 0  0.6666666666666667 -0.4 0  0.7333333333333334 -0.4 0 
[...]
<PointData  Scalars="f_24"> 
<DataArray  type="Float64"  Name="f_24"  format="ascii">0.0000000000000000e+00  0.0000000000000000e+00  0.0000000000000000e+00  0.0000000000000000e+00  0.0000000000000000e+00  0.0000000000000000e+00  0.0000000000000000e+00  0.0000000000000000e+00  0.0000000000000000e+00  0.0000000000000000e+00  0.0000000000000000e+00  0.0000000000000000e+00  0.0000000000000000e+00  0.0000000000000000e+00  0.0000000000000000e+00  0.0000000000000000e+00  0.0000000000000000e+00  0.0000000000000000e+00  0.0000000000000000e+00  0.0000000000000000e+00  0.0000000000000000e+00  0.0000000000000000e+00  0.0000000000000000e+00  0.0000000000000000e+00  0.0000000000000000e+00  0.0000000000000000e+00  0.0000000000000000e+00  0.0000000000000000e+00  0.0000000000000000e+00  0.0000000000000000e+00  1.1853091530907488e+01  0.0000000000000000e+00  5.7512028176225076e-02  1.1217880833825883e-01  1.6352448751213972e-01  2.1210123285226898e-01  2.5845304293797194e-01  3.0311725776089338e-01  3.4666388724399344e-01  3.8971097995559151e-01  4.3294133234791116e-01  4.7711991163866102e-01  5.2311443697840088e-01  5.7192289813380248e-01  6.2471185367392568e-01  6.8287016264362654e-01  7.4808428500267932e-01  8.2244365764598104e-01  9.0858855724156151e-01  1.0099189856767239e+00  1.1308926392475103e+00  1.2774550708144967e+00  1.4576695367802306e+00  1.6826551280048314e+00  1.9680144820658290e+00  2.3360697571196711e+00  2.8195038268179493e+00  3.4676042221973078e+00  4.3578688636461642e+00  5.6192247508786117e+00  7.4886728267107792e+00  1.0349958556878740e+01  0.0000000000000000e+00  1.1096646083152442e-01  2.0980583945701572e-01  2.9144588974084829e-01  3.5500168252931485e-01  4.0115637609988258e-01  4.3163449961382833e-01  4.4875126068911114e-01  4.5501071664027820e-01  4.5283798640907874e-01  4.4441759516292795e-01  4.3162174125930491e-01  4.1600318431392330e-01  3.9883013736899503e-01  3.8114754598801309e-01  3.6385643352899927e-01  3.4781095109421345e-01  3.3394167164430555e-01  3.2342499017140813e-01  3.1793563524569868e-01  3.2004794215261873e-01  3.3390171385429707e-01  3.6633858156860666e-01  4.2888099827916054e-01  5.4124338958101814e-01  7.3771108740767311e-01  1.0791881226735311e+00  1.6772070470096800e+00  2.7482124353411632e+00  4.7507491169018454e+00  8.9945355901499671e+00  0.0000000000000000e+00  1.5805938019366605e-01  2.8542202394235594e-01  3.6924069758115086e-01  4.0950881000098216e-01  4.1282126043196166e-01  3.8877407438140293e-01  3.4724521173174927e-01  2.9671969426715361e-01  2.4362970884213533e-01  1.9233740463405927e-01  1.4546278910976346e-01  1.0432121076869807e-01  6.9339768195617019e-02  4.0395978601425062e-02  1.7067345196555703e-02  -1.1959877830499048e-03  -1.4954043178345163e-02  -2.4689889917356045e-02  -3.0721058450040608e-02  -3.3060960710010225e-02  -3.1138671501624759e-02  -2.3185452502790665e-02  -4.8769228754918723e-03  3.3654208118789566e-02  1.1434095065223060e-01  2.8539774049986311e-01  6.5331275026468261e-01  1.4572740742606660e+00  3.2833810295165411e+00  7.7768133534284027e+00  0.0000000000000000e+00  1.9755272393278978e-01  3.3740324037617525e-01  3.9991011706129004e-01  3.9431327589124537e-01  3.4302601253208292e-01  2.7002422349694366e-01  1.9419077623142803e-01  1.2717178453072245e-01  7.4216792900506368e-02  3.6134141314478160e-02  1.1255132139266320e-02  -3.1040668515067661e-03  -9.7451237375966657e-03  -1.1138019240889906e-02  -9.2615133687794868e-03  -5.6028451028438953e-03  -1.2299183966630162e-03  3.1137081784700046e-03  6.9156810488029373e-03  9.8162327881196297e-03  1.1562862961923716e-02  1.2063889337987065e-02  1.1768329823553027e-02  1.3065311938843768e-02  2.4638489583151110e-02  7.3896116606615936e-02  2.4015182359108433e-01  7.4626528390090496e-01  2.2132852972461894e+00  6.6871337721333095e+00  0.0000000000000000e+00  2.2903613016945179e-01  3.6808595368626673e-01  3.9565546767011750e-01  3.4072686725185691e-01  2.4822431682753279e-01  1.5505900716630122e-01  8.1506177930289414e-02  3.3060599764200720e-02  6.4576636313618731e-03  -4.8244563285678391e-03  -7.1552863739432915e-03  -5.3298772527864309e-03  -2.3689410797996472e-03  1.3520607964494886e-04  1.5501855583980194e-03  1.8023666782613793e-03  1.0944422172422135e-03  -2.6908157242780915e-04  -1.9793532649251423e-03  -3.7761312363391933e-03  -5.4879250499228300e-03  -7.0912165511528378e-03  -8.7949576939105791e-03  -1.0933939554229388e-02  -1.2477805596501738e-02  -3.6211705474259942e-03  6.2711144928680532e-02  3.6228013906697903e-01  1.5102803200153312e+00  5.7161899743959728e+00  0.0000000000000000e+00  2.5274276067647039e-01  3.8181481613757468e-01  3.7046507867778905e-01  2.7526084285563435e-01  1.6320676646568757e-01  7.5460325705990081e-02  2.3406947548754123e-02  3.7069266639582556e-04  -5.5601366187281766e-03  -4.2586638565048074e-03  -1.4834137301543071e-03  4.0271442579264857e-04  1.0074471305847941e-03  7.4795155395198309e-04  1.8431754607348946e-04  -2.6157254392337521e-04  -3.6753038238934493e-04  -7.7623685237562681e-05  5.5633316265362885e-04  1.4282111122050569e-03  2.4154995443107659e-03  3.3879123676085797e-03  4.1346035032739994e-03  4.0766172331690451e-03  1.9126937191031035e-03  -2.1945439862820228e-03  1.1024087382285760e-02  1.6515135885502069e-01  1.0062469212355556e+00  4.8550262910597075e+00  0.0000000000000000e+00  2.6933998855570934e-01  3.8339049490929655e-01  3.3593508922137749e-01  2.1395686864719327e-01  1.0039571642795193e-01  3.0612224126673988e-02  1.3568071724548740e-03  -4.8456808889327024e-03  -2.8947755036168969e-03  -3.7559479132201029e-04  6.4742024769867625e-04  5.4019241488684677e-04  1.0569423852501197e-04  -1.7524997074359539e-04  -1.9828016160601072e-04  -6.9418766953615205e-05  5.3378800984573938e-05  4.8245703672914869e-05  -1.4215142115733191e-04  -5.1500152003037625e-04  -1.0224271841699740e-03  -1.5782478544143670e-03  -2.0592444304210291e-03  -2.3983766889740027e-03  -3.2444187434142457e-03  -7.0648303440666010e-03  -1.1025005060936311e-02  5.6116940667555598e-02  6.5753887787045484e-01  4.0950382556798539e+00  0.0000000000000000e+00  2.7972853974287204e-01  3.7712776674260767e-01  2.9998416312504655e-01  1.6376256567173772e-01  5.9196944975656522e-02  9.1431553545832864e-03  -3.9530969162591108e-03  -2.9124345555426416e-03  -3.1597917593879145e-04  5.4853434275481307e-04  3.1174487839537356e-04  -3.5089781034910163e-05  -1.2997935395951820e-04  -5.1371070627433704e-05  3.8354561162820773e-05  5.9567708329593548e-05  2.7543767059639649e-05  4.1403015251832889e-06  5.1681904524343638e-05  2.0732696145394611e-04  4.7538199555586933e-04  8.2852097224969245e-04  1.2384212422939162e-03  1.7347894128700169e-03  2.2896902987804015e-03  1.0821771016162828e-03  -6.5920923005595112e-03  1.1325841035392544e-02  4.1741998323492840e-01  3.4279726045237844e+00  0.0000000000000000e+00  2.8488127453480788e-01  3.6644620736591149e-01  2.6720209982582838e-01  1.2598728810538379e-01  3.4308102749108935e-02  4.0894407798940319e-04  -3.6470045538734971e-03  -9.0924348570267102e-04  4.3173844324106541e-04  2.8729005555866926e-04  -3.4930342486003824e-05  -9.1022312461946735e-05  -1.3916917037463012e-05  3.0574029494310432e-05  1.6430218089784103e-05  -1.2181326316839968e-05  -2.0677817406543072e-05  -1.2265823696659727e-05  -1.5598935349095376e-05  -6.2719455318912057e-05  -1.7332105533117857e-04  -3.4856757361061933e-04  -5.9072138832538432e-04  -8.4583453807002653e-04  -9.0677874847128388e-04  -1.0005602109553545e-03  -6.6896966606600191e-03  -1.2039770900783823e-02  2.4795680855087648e-01  2.8459272765708872e+00  0.0000000000000000e+00  2.8573271960903457e-01  3.5380892950430615e-01  2.3977117560659408e-01  9.9287512603365602e-02  2.0199176201173792e-02  -2.4207628699741313e-03  -2.3201582573518934e-03  2.9957062272469202e-05  3.7086841396967950e-04  2.7101874576994416e-05  -7.8749552816067189e-05  -1.4891695324883664e-05  2.2290906903571241e-05  7.5867301945717792e-06  -7.8597442834403590e-06  -4.4438703244909694e-06  6.0254881167896031e-06  1.0473600870862866e-05  1.3511436378636761e-05  3.4867888960139323e-05  1.0010276008942637e-04  2.2713960694579618e-04  4.2729028656673755e-04  6.3275506241005307e-04  9.4947917232001051e-04  1.5974181678604488e-03  -5.2567050121284857e-04  -1.4884183959172171e-02  1.3935621433358178e-01  2.3413514135125912e+00  0.0000000000000000e+00  2.8311522207756912e-01  3.4083762302323239e-01  2.1837667747348349e-01  8.1526474129495943e-02  1.2692225224708312e-02  -2.9164723232261119e-03  -1.3050158110945993e-03  2.9568322296145771e-04  1.8821472457549636e-04  -5.6505155555066090e-05  -3.4949276372166309e-05  1.4446287775773846e-05  8.9152082490225780e-06  -5.3036622402110755e-06  -2.8303502948020821e-06  2.1517126150592328e-06  6.3768983059175671e-07  -3.8813213220268972e-06  -6.0350281380206490e-06  -7.6951162751404187e-06  -1.6642759080776505e-05  -3.5282219519174931e-05  -7.4742038164669853e-05  -1.1625866447059681e-04  -3.0910261337889028e-04  -4.5590197775222152e-06  -6.1904808756300597e-04  -1.4791667521284418e-02  6.2892741050713241e-02  1.9070453597523389e+00  0.0000000000000000e+00  2.7773007666095673e-01  3.2848805962467836e-01  2.0289063051775250e-01  7.0692648901794053e-02  9.1043359989531978e-03  -2.6704620929457147e-03  -7.4881839099413220e-04  3.0140103681978612e-04  7.5515293577542076e-05  -5.6531886640121692e-05  -5.3205943522394742e-06  1.2439249625073801e-05  -7.9948265393420439e-07  -3.4871133762259090e-06  1.2198300238797688e-06  9.1702178766636157e-07  -7.4266621385541915e-07  -1.0946433399204082e-07  1.9688403064381498e-06  6.1775957639002613e-06  2.5476674167891351e-05  7.7463109936478676e-05  2.0053712419678172e-04  3.6094831021929588e-04  5.7819462227143932e-04  6.9720091824898188e-04  1.9215991191280958e-03  -9.7754561135582462e-03  1.9683030869021099e-02  1.5361606624056103e+00  0.0000000000000000e+00  2.7014383444971984e-01  3.1722069052673518e-01  1.9280932628491754e-01  6.5238756677401297e-02  7.9162137323700518e-03  -2.2757869039032076e-03  -5.1856511490500318e-04  2.4654124249536935e-04  3.1901320091696508e-05  -4.0660425386345493e-05  3.4017436672607393e-06  6.5811973300994205e-06  -2.3791466732075798e-06  -9.7226631111463624e-07  1.0929908941860662e-06  -1.7593451824055854e-07  -3.1029977437356566e-07  -1.5495027650048103e-07  -1.7387389198500833e-06  -2.9193301828638001e-06  2.6591883188583926e-06  3.6542386041499349e-05  9.1474125398438919e-05  2.1751600642981497e-04  2.1822638892993160e-04  2.2423072999172656e-04  8.6025882404064434e-04  -5.9283253651452967e-03  -9.5186590105414241e-03  1.2222000712999064e+00  0.0000000000000000e+00  2.6079410314186863e-01  3.0714344481631040e-01  1.8749258116290360e-01  6.4131947375669240e-02  8.4050820983263431e-03  -1.8722726767864426e-03  -4.8704645792196796e-04  1.9130446243151278e-04  2.6690179324163246e-05  -2.8976927805801803e-05  2.5744001382530915e-06  3.8965135381716848e-06  -1.4790274849878341e-06  -3.4215430067695144e-07  4.0488644973409524e-07  -1.4077107956854406e-07  1.0775380236526057e-07  6.1464641409697074e-08  -1.1466900114532535e-06  -2.6300717877488333e-06  8.3410308439245725e-06  5.2629273113567698e-05  1.9070956559445260e-04  3.6583862432156412e-04  6.8124818055932711e-04  5.5692706246677983e-04  1.5645497798276460e-03  -2.0361370059912591e-03  -2.1785552298415500e-02  9.5901753897475694e-01  0.0000000000000000e+00  2.5001177888310305e-01  2.9811348560521289e-01  1.8627299635749606e-01  6.6779671394450596e-02  1.0383535402372707e-02  -1.3875579665292165e-03  -5.7811697734002254e-04  1.3398377295259541e-04  4.0565415210788632e-05  -2.0696767166403269e-05  -1.6115506279785068e-06  3.0016659034485955e-06  -1.9995814064197630e-07  -2.4958360893995140e-07  4.7939856154835053e-08  -6.5005534627358655e-08  1.9086756207763529e-07  3.2034432402569457e-07  -1.6205101647121042e-06  -4.9215299302046289e-06  1.0863903634290399e-06  6.3727847241995346e-05  2.0178209633359576e-04  4.7345879478677026e-04  6.5244225860347190e-04  7.6209423253698039e-04  6.7798617349237845e-04  5.1117114222901919e-04  -2.8624218152922442e-02  7.4081822068171799e-01  0.0000000000000000e+00  2.3802540640824546e-01  2.8981459662106707e-01  1.8847166535929866e-01  7.2919161408429314e-02  1.4046247599738515e-02  -5.9757272166233849e-04  -7.3697464551165557e-04  4.6450200220795975e-05  6.1434410772643556e-05  -8.7721347143014342e-06  -6.4884805115775358e-06  1.1588977947727756e-06  8.4039766875220988e-07  1.5699238935142946e-07  -5.4648037828604656e-08  -1.1710651676307747e-07  3.9765129849076460e-07  7.5493291908210147e-07  -2.3256350903764221e-06  -8.8446788858966553e-06  4.2094606430515832e-06  8.3766613592638230e-05  3.1125691474440093e-04  6.2879668808803364e-04  1.0130051083008908e-03  1.0603299444922113e-03  9.4831012598501035e-04  2.1333158501657006e-03  -2.7893272195595939e-02  5.6215847438437294e-01  0.0000000000000000e+00  2.2500418239790893e-01  2.8179841253357085e-01  1.9337800594901292e-01  8.2481167793731019e-02  1.9895341299251343e-02  9.1228624078642953e-04  -8.6355676335477232e-04  -1.1041727346567972e-04  6.7843231518292826e-05  1.3476946331792967e-05  -6.6505421427654796e-06  -2.7207084172381463e-06  -1.8136842240706281e-07  -9.1340762522685960e-08  -3.7525624467476997e-07  -4.7504270544040024e-08  1.1474942517790198e-06  1.0547893615028618e-06  -5.7652301885066596e-06  -1.3361629594406738e-05  7.7433545999058996e-06  1.4745238850075317e-04  4.3624641973021136e-04  9.2406596586715357e-04  1.2370902640336794e-03  1.5061426649685570e-03  6.5266603183068966e-04  3.0069442473866373e-03  -2.5725499084548308e-02  4.1794586075833184e-01  0.0000000000000000e+00  2.1102928748894600e-01  2.7352463448029007e-01  2.0017360867071546e-01  9.5443634534343277e-02  2.8679276448083942e-02  3.8495049305345207e-03  -6.9502117048673030e-04  -3.4964826680857034e-04  1.1385384303274066e-05  3.7242990025303552e-05  7.0648861592852944e-06  -2.3580566995389896e-06  -2.2145569506298743e-06  -1.3306512242897222e-06  -4.1453227982332799e-07  1.3170730001125867e-06  2.6099245312006781e-06  -1.3533008239696898e-06  -1.4368543839277253e-05  -2.0094404932642418e-05  4.1878439035658964e-05  2.6374654132033207e-04  7.1442919041210323e-04  1.2954255080128438e-03  1.7469538757289907e-03  1.8813849101712318e-03  9.9731069460238814e-04  3.1783399148717821e-03  -2.1003942908858982e-02  3.0343914319123172e-01  0.0000000000000000e+00  1.9618414004202461e-01  2.6437591162987145e-01  2.0788934402937942e-01  1.1163799684081550e-01  4.1298831815033729e-02  9.3272142515273705e-03  3.9701045450311016e-04  -5.3502693798686285e-04  -1.6654956523482137e-04  8.7706984009031555e-06  2.4578023324936039e-05  1.1662839281907709e-05  4.6785224319544798e-06  3.1545362298695958e-06  3.9851581892288872e-06  4.5286900613981476e-06  5.5741759444747013e-08  -1.4203973274960901e-05  -3.1376446214294171e-05  -6.8882448844121706e-06  1.4347239609536607e-04  5.3826623167051299e-04  1.1609522250749023e-03  1.9224348714989962e-03  2.3152825727327810e-03  2.4346901330589369e-03  1.1751978425237350e-03  3.1084279354796824e-03  -1.6571301689595360e-02  2.1424828778273652e-01  0.0000000000000000e+00  1.8044514480258694e-01  2.5368314343300380e-01  2.1528945288424220e-01  1.3052051265130493e-01  5.8577180980998726e-02  1.8904905803252520e-02  3.6866351070232914e-03  -8.0746046047007410e-05  -3.7513927434484288e-04  -1.5289664599612556e-04  -2.8991763368080533e-05  5.4231116039159023e-06  9.6689108852409642e-06  7.5882572684529638e-06  3.0274705700403200e-06  -6.9795090117732179e-06  -2.5356282937950618e-05  -4.4727711826881199e-05  -2.9376895750310753e-05  9.8322849408943028e-05  4.4908787271329636e-04  1.0911143508337772e-03  1.9630566043558634e-03  2.7906557519877602e-03  3.1575621381649045e-03  2.9616686261598087e-03  1.6299964994210458e-03  2.7410396747395648e-03  -1.1950711713193056e-02  1.4633446334453695e-01  0.0000000000000000e+00  1.6388354540284711e-01  2.4076035099079107e-01  2.2090077878725645e-01  1.5091375139353302e-01  8.0866998267141013e-02  3.4384068531829098e-02  1.1319038754158342e-02  2.5530848208895050e-03  1.0892586584570150e-04  -2.7146805734545442e-04  -2.0287411373925353e-04  -1.1538744198546716e-04  -6.9761390478723383e-05  -5.4474053932027945e-05  -5.6824441801834845e-05  -6.7273491090307950e-05  -6.8730339942782095e-05  -2.1941044230041774e-05  1.4515432356743268e-04  5.3238622342593751e-04  1.2174732667052414e-03  2.1927057256637206e-03  3.2462715977453292e-03  4.0587562855193470e-03  4.1552347931509458e-03  3.6153478329042613e-03  2.0100533554099345e-03  2.3965166112187249e-03  -8.2010318674614422e-03  9.6010041400350701e-02  0.0000000000000000e+00  1.4639232615206779e-01  2.2490297842521398e-01  2.2289285863460201e-01  1.7072386391905126e-01  1.0739456208383086e-01  5.7128152812863861e-02  2.6106954931632835e-02  1.0311186898921900e-02  3.4831293641832688e-03  9.4335098404922765e-04  1.3277276664218766e-04  -7.9101716094979660e-05  -1.1239818283647489e-04  -9.7979581023241569e-05  -6.1837841099860494e-05  1.2066272573181520e-05  1.6702162872506027e-04  4.7052378190922019e-04  1.0039059229392684e-03  1.8276855243026572e-03  2.9308669547187184e-03  4.1584493065326411e-03  5.2145397464275194e-03  5.7098065180988715e-03  5.3579836172548811e-03  4.2510395414809840e-03  2.4342535384285773e-03  2.0191665051976352e-03  -5.1027643256710510e-03  5.9938596185922351e-02  0.0000000000000000e+00  1.2811485684273649e-01  2.0553259034484936e-01  2.1934335746560368e-01  1.8687214474734165e-01  1.3558982258179975e-01  8.6813240717262083e-02  5.0356736355987627e-02  2.7124495780031309e-02  1.3944693370184995e-02  7.0781891368264550e-03  3.7077855696906622e-03  2.1228766765036787e-03  1.4194781519032728e-03  1.1687853486258457e-03  1.1923596607063968e-03  1.4378660510836309e-03  1.9138785229792256e-03  2.6492567354445074e-03  3.6546001858486009e-03  4.8820822047042347e-03  6.1820158398154992e-03  7.2996096959478994e-03  7.8991249434487692e-03  7.7081395103753940e-03  6.6052034722489323e-03  4.8699673468786155e-03  2.7494277894154137e-03  1.7354402378897823e-03  -2.8808049156611713e-03  3.5134904649023274e-02  0.0000000000000000e+00  1.0887420685314478e-01  1.8208139981966273e-01  2.0813110913387553e-01  1.9524618907804078e-01  1.6042852227099283e-01  1.1972463100426260e-01  8.3357491946557630e-02  5.5473541627343755e-02  3.6163089187019146e-02  2.3701057877063607e-02  1.6045358921198953e-02  1.1517904812562509e-02  8.9574090850707694e-03  7.6395933587744425e-03  7.1414827896213043e-03  7.2221651840316085e-03  7.7340620635357894e-03  8.5588089972592242e-03  9.5613311518436845e-03  1.0558215723001091e-02  1.1314745184248749e-02  1.1563658751908089e-02  1.1083148304009433e-02  9.7676538336073163e-03  7.7340436103318314e-03  5.3277171264192397e-03  2.9563828498464515e-03  1.4993839744155424e-03  -1.3633904576484954e-03  1.8964946449451965e-02  0.0000000000000000e+00  8.9016169864632913e-02  1.5445838087994615e-01  1.8773521940206220e-01  1.9155091934507051e-01  1.7486483299050767e-01  1.4780631726281573e-01  1.1848296627140559e-01  9.1872580812737012e-02  7.0159218356580108e-02  5.3658988906473297e-02  4.1734326047994610e-02  3.3434547587352301e-02  2.7840749492652719e-02  2.4198372789337251e-02  2.1931286626051361e-02  2.0606135816842713e-02  1.9884404026163378e-02  1.9481169349757934e-02  1.9136739267521814e-02  1.8608677457262246e-02  1.7679150206924180e-02  1.6190516759681209e-02  1.4078756202054610e-02  1.1424919594603223e-02  8.4535115416081909e-03  5.5221911289636185e-03  2.9853452427010575e-03  1.3179957548373896e-03  -4.6307077615631061e-04  9.1459039590335474e-03  0.0000000000000000e+00  6.8345846965308016e-02  1.2257707510742968e-01  1.5698601746825505e-01  1.7181746767834699e-01  1.7085370276891088e-01  1.5928107774465944e-01  1.4206731745994830e-01  1.2308816706908013e-01  1.0488358622255667e-01  8.8811348451944924e-02  7.5367000109619373e-02  6.4511888848070589e-02  5.5931057661971761e-02  4.9203253234045584e-02  4.389596