<?xml version="1.0"?>
<VTKFile type="UnstructuredGrid"  version="0.1"  >
<UnstructuredGrid>
<Piece  NumberOfPoints="961" NumberOfCells="1800">
<Points>
<DataArray  type="Float64"  NumberOfComponents="3"  format="ascii">-1 -1 0  -0.9333333333333333 -1 0  -0.8666666666666667 -1 0  -0.8 -1 0  -0.7333333333333334 -1 0  -0.6666666666666667 -1 0  -0.6 -1 0  -0.5333333333333333 -1 0  -0.4666666666666667 -1 0  -0.4 -1 0  -0.3333333333333334 -1 0  -0.2666666666666667 -1 0  -0.2 -1 0  -0.1333333333333333 -1 0  -0.06666666666666665 -1 0  0 -1 0  0.06666666666666665 -1 0  0.1333333333333333 -1 0  0.2 -1 0  0.2666666666666666 -1 0  0.3333333333333333 -1 0  0.3999999999999999 -1 0  0.4666666666666666 -1 0  0.5333333333333334 -1 0  0.6000000000000001 -1 0  0.6666666666666667 -1 0  0.7333333333333334 -1 0  0.8 -1 0  0.8666666666666667 -1 0  0.9333333333333333 -1 0  1 -1 0  -1 -0.9333333333333333 0  -0.9333333333333333 -0.9333333333333333 0  -0.8666666666666667 -0.9333333333333333 0  -0.8 -0.9333333333333333 0  -0.7333333333333334 -0.9333333333333333 0  -0.6666666666666667 -0.9333333333333333 0  -0.6 -0.9333333333333333 0  -0.5333333333333333 -0.9333333333333333 0  -0.4666666666666667 -0.9333333333333333 0  -0.4 -0.9333333333333333 0  -0.3333333333333334 -0.9333333333333333 0  -0.2666666666666667 -0.9333333333333333 0  -0.2 -0.9333333333333333 0  -0.1333333333333333 -0.9333333333333333 0  -0.06666666666666665 -0.9333333333333333 0  0 -0.9333333333333333 0  0.06666666666666665 -0.9333333333333333 0  0.1333333333333333 -0.9333333333333333 0  0.2 -0.9333333333333333 0  0.2666666666666666 -0.9333333333333333 0  0.3333333333333333 -0.9333333333333333 0  0.3999999999999999 -0.9333333333333333 0  0.4666666666666666 -0.9333333333333333 0  0.5333333333333334 -0.9333333333333333 0  0.6000000000000001 -0.9333333333333333 0  0.6666666666666667 -0.9333333333333333 0  0.7333333333333334 -0.9333333333333333 0  0.8 -0.9333333333333333 0  0.8666666666666667 -0.9333333333333333 0  0.9333333333333333 -0.9333333333333333 0  1 -0.9333333333333333 0  -1 -0.8666666666666667 0  -0.9333333333333333 -0.8666666666666667 0  -0.8666666666666667 -0.8666666666666667 0  -0.8 -0.8666666666666667 0  -0.7333333333333334 -0.8666666666666667 0  -0.6666666666666667 -0.8666666666666667 0  -0.6 -0.8666666666666667 0  -0.5333333333333333 -0.8666666666666667 0  -0.4666666666666667 -0.8666666666666667 0  -0.4 -0.8666666666666667 0  -0.3333333333333334 -0.8666666666666667 0  -0.2666666666666667 -0.8666666666666667 0  -0.2 -0.8666666666666667 0  -0.1333333333333333 -0.8666666666666667 0  -0.06666666666666665 -0.8666666666666667 0  0 -0.8666666666666667 0  0.06666666666666665 -0.8666666666666667 0  0.1333333333333333 -0.8666666666666667 0  0.2 -0.8666666666666667 0  0.2666666666666666 -0.8666666666666667 0  0.3333333333333333 -0.8666666666666667 0  0.3999999999999999 -0.8666666666666667 0  0.4666666666666666 -0.8666666666666667 0  0.5333333333333334 -0.8666666666666667 0  0.6000000000000001 -0.8666666666666667 0  0.6666666666666667 -0.8666666666666667 0  0.7333333333333334 -0.8666666666666667 0  0.8 -0.8666666666666667 0  0.8666666666666667 -0.8666666666666667 0  0.9333333333333333 -0.8666666666666667 0  1 -0.8666666666666667 0  -1 -0.8 0  -0.9333333333333333 -0.8 0  -0.8666666666666667 -0.8 0  -0.8 -0.8 0  -0.7333333333333334 -0.8 0  -0.6666666666666667 -0.8 0  -0.6 -0.8 0  -0.5333333333333333 -0.8 0  -0.4666666666666667 -0.8 0  -0.4 -0.8 0  -0.3333333333333334 -0.8 0  -0.2666666666666667 -0.8 0  -0.2 -0.8 0  -0.1333333333333333 -0.8 0  -0.06666666666666665 -0.8 0  0 -0.8 0  0.06666666666666665 -0.8 0  0.1333333333333333 -0.8 0  0.2 -0.8 0  0.2666666666666666 -0.8 0  0.3333333333333333 -0.8 0  0.3999999999999999 -0.8 0  0.4666666666666666 -0.8 0  0.5333333333333334 -0.8 0  0.6000000000000001 -0.8 0  0.6666666666666667 -0.8 0  0.7333333333333334 -0.8 0  0.8 -0.8 0  0.8666666666666667 -0.8 0  0.9333333333333333 -0.8 0  1 -0.8 0  -1 -0.7333333333333334 0  -0.9333333333333333 -0.7333333333333334 0  -0.8666666666666667 -0.7333333333333334 0  -0.8 -0.7333333333333334 0  -0.7333333333333334 -0.7333333333333334 0  -0.6666666666666667 -0.7333333333333334 0  -0.6 -0.7333333333333334 0  -0.5333333333333333 -0.7333333333333334 0  -0.4666666666666667 -0.7333333333333334 0  -0.4 -0.7333333333333334 0  -0.3333333333333334 -0.7333333333333334 0  -0.2666666666666667 -0.7333333333333334 0  -0.2 -0.7333333333333334 0  -0.1333333333333333 -0.7333333333333334 0  -0.06666666666666665 -0.7333333333333334 0  0 -0.7333333333333334 0  0.06666666666666665 -0.7333333333333334 0  0.1333333333333333 -0.7333333333333334 0  0.2 -0.7333333333333334 0  0.2666666666666666 -0.7333333333333334 0  0.3333333333333333 -0.7333333333333334 0  0.3999999999999999 -0.7333333333333334 0  0.4666666666666666 -0.7333333333333334 0  0.5333333333333334 -0.7333333333333334 0  0.6000000000000001 -0.7333333333333334 0  0.6666666666666667 -0.7333333333333334 0  0.7333333333333334 -0.7333333333333334 0  0.8 -0.7333333333333334 0  0.8666666666666667 -0.7333333333333334 0  0.9333333333333333 -0.7333333333333334 0  1 -0.7333333333333334 0  -1 -0.6666666666666667 0  -0.9333333333333333 -0.6666666666666667 0  -0.8666666666666667 -0.6666666666666667 0  -0.8 -0.6666666666666667 0  -0.7333333333333334 -0.6666666666666667 0  -0.6666666666666667 -0.6666666666666667 0  -0.6 -0.6666666666666667 0  -0.5333333333333333 -0.6666666666666667 0  -0.4666666666666667 -0.6666666666666667 0  -0.4 -0.6666666666666667 0  -0.3333333333333334 -0.6666666666666667 0  -0.2666666666666667 -0.6666666666666667 0  -0.2 -0.6666666666666667 0  -0.1333333333333333 -0.6666666666666667 0  -0.06666666666666665 -0.6666666666666667 0  0 -0.6666666666666667 0  0.06666666666666665 -0.6666666666666667 0  0.1333333333333333 -0.6666666666666667 0  0.2 -0.6666666666666667 0  0.2666666666666666 -0.6666666666666667 0  0.3333333333333333 -0.6666666666666667 0  0.3999999999999999 -0.6666666666666667 0  0.4666666666666666 -0.6666666666666667 0  0.5333333333333334 -0.6666666666666667 0  0.6000000000000001 -0.6666666666666667 0  0.6666666666666667 -0.6666666666666667 0  0.7333333333333334 -0.6666666666666667 0  0.8 -0.6666666666666667 0  0.8666666666666667 -0.6666666666666667 0  0.9333333333333333 -0.6666666666666667 0  1 -0.6666666666666667 0  -1 -0.6 0  -0.9333333333333333 -0.6 0  -0.8666666666666667 -0.6 0  -0.8 -0.6 0  -0.7333333333333334 -0.6 0  -0.6666666666666667 -0.6 0  -0.6 -0.6 0  -0.5333333333333333 -0.6 0  -0.4666666666666667 -0.6 0  -0.4 -0.6 0  -0.3333333333333334 -0.6 0  -0.2666666666666667 -0.6 0  -0.2 -0.6 0  -0.1333333333333333 -0.6 0  -0.06666666666666665 -0.6 0  0 -0.6 0  0.06666666666666665 -0.6 0  0.1333333333333333 -0.6 0  0.2 -0.6 0  0.2666666666666666 -0.6 0  0.3333333333333333 -0.6 0  0.3999999999999999 -0.6 0  0.4666666666666666 -0.6 0  0.5333333333333334 -0.6 0  0.6000000000000001 -0.6 0  0.6666666666666667 -0.6 0  0.7333333333333334 -0.6 0  0.8 -0.6 0  0.8666666666666667 -0.6 0  0.9333333333333333 -0.6 0  1 -0.6 0  -1 -0.5333333333333333 0  -0.9333333333333333 -0.5333333333333333 0  -0.8666666666666667 -0.5333333333333333 0  -0.8 -0.5333333333333333 0  -0.7333333333333334 -0.5333333333333333 0  -0.6666666666666667 -0.5333333333333333 0  -0.6 -0.5333333333333333 0  -0.5333333333333333 -0.5333333333333333 0  -0.4666666666666667 -0.5333333333333333 0  -0.4 -0.5333333333333333 0  -0.3333333333333334 -0.5333333333333333 0  -0.2666666666666667 -0.5333333333333333 0  -0.2 -0.5333333333333333 0  -0.1333333333333333 -0.5333333333333333 0  -0.06666666666666665 -0.5333333333333333 0  0 -0.5333333333333333 0  0.06666666666666665 -0.5333333333333333 0  0.1333333333333333 -0.5333333333333333 0  0.2 -0.5333333333333333 0  0.2666666666666666 -0.5333333333333333 0  0.3333333333333333 -0.5333333333333333 0  0.3999999999999999 -0.5333333333333333 0  0.4666666666666666 -0.5333333333333333 0  0.5333333333333334 -0.5333333333333333 0  0.6000000000000001 -0.5333333333333333 0  0.6666666666666667 -0.5333333333333333 0  0.7333333333333334 -0.5333333333333333 0  0.8 -0.5333333333333333 0  0.8666666666666667 -0.5333333333333333 0  0.9333333333333333 -0.5333333333333333 0  1 -0.5333333333333333 0  -1 -0.4666666666666667 0  -0.9333333333333333 -0.4666666666666667 0  -0.8666666666666667 -0.4666666666666667 0  -0.8 -0.4666666666666667 0  -0.7333333333333334 -0.4666666666666667 0  -0.6666666666666667 -0.4666666666666667 0  -0.6 -0.4666666666666667 0  -0.5333333333333333 -0.4666666666666667 0  -0.4666666666666667 -0.4666666666666667 0  -0.4 -0.4666666666666667 0  -0.3333333333333334 -0.4666666666666667 0  -0.2666666666666667 -0.4666666666666667 0  -0.2 -0.4666666666666667 0  -0.1333333333333333 -0.4666666666666667 0  -0.06666666666666665 -0.4666666666666667 0  0 -0.4666666666666667 0  0.06666666666666665 -0.4666666666666667 0  0.1333333333333333 -0.4666666666666667 0  0.2 -0.4666666666666667 0  0.2666666666666666 -0.4666666666666667 0  0.3333333333333333 -0.4666666666666667 0  0.3999999999999999 -0.4666666666666667 0  0.4666666666666666 -0.4666666666666667 0  0.5333333333333334 -0.4666666666666667 0  0.6000000000000001 -0.4666666666666667 0  0.6666666666666667 -0.4666666666666667 0  0.7333333333333334 -0.4666666666666667 0  0.8 -0.4666666666666667 0  0.8666666666666667 -0.4666666666666667 0  0.9333333333333333 -0.4666666666666667 0  1 -0.4666666666666667 0  -1 -0.4 0  -0.9333333333333333 -0.4 0  -0.8666666666666667 -0.4 0  -0.8 -0.4 0  -0.7333333333333334 -0.4 0  -0.6666666666666667 -0.4 0  -0.6 -0.4 0  -0.5333333333333333 -0.4 0  -0.4666666666666667 -0.4 0  -0.4 -0.4 0  -0.3333333333333334 -0.4 0  -0.2666666666666667 -0.4 0  -0.2 -0.4 0  -0.1333333333333333 -0.4 0  -0.06666666666666665 -0.4 0  0 -0.4 0  0.06666666666666665 -0.4 0  0.1333333333333333 -0.4 0  0.2 -0.4 0  0.2666666666666666 -0.4 0  0.3333333333333333 -0.4 0  0.3999999999999999 -0.4 0  0.4666666666666666 -0.4 0  0.5333333333333334 -0.4 0  0.6000000000000001 -0.4 0  0.6666666666666667 -0.4 0  0.7333333333333334 -0.4 0 
[...]
<PointData  Scalars="f_24"> 
<DataArray  type="Float64"  Name="f_24"  format="ascii">0.0000000000000000e+00  0.0000000000000000e+00  0.0000000000000000e+00  0.0000000000000000e+00  0.0000000000000000e+00  0.0000000000000000e+00  0.0000000000000000e+00  0.0000000000000000e+00  0.0000000000000000e+00  0.0000000000000000e+00  0.0000000000000000e+00  0.0000000000000000e+00  0.0000000000000000e+00  0.0000000000000000e+00  0.0000000000000000e+00  0.0000000000000000e+00  0.0000000000000000e+00  0.0000000000000000e+00  0.0000000000000000e+00  0.0000000000000000e+00  0.0000000000000000e+00  0.0000000000000000e+00  0.0000000000000000e+00  0.0000000000000000e+00  0.0000000000000000e+00  0.0000000000000000e+00  0.0000000000000000e+00  0.0000000000000000e+00  0.0000000000000000e+00  0.0000000000000000e+00  1.3771327622800923e+01  0.0000000000000000e+00  6.3789096328631554e-03  2.6332395647168171e-02  5.9300827347010865e-02  1.0188310932227525e-01  1.5101997643174364e-01  2.0450892817457395e-01  2.6090361173087162e-01  3.1937600450144749e-01  3.7959896333366261e-01  4.4165961017637401e-01  5.0600308864376753e-01  5.7340387307658636e-01  6.4496412735828723e-01  7.2214098446551944e-01  8.0680721231036545e-01  9.0135328569294282e-01  1.0088438780736002e+00  1.1332491890159784e+00  1.2797828284817152e+00  1.4553956397619794e+00  1.6695033150592329e+00  1.9350735545712765e+00  2.2702830294739313e+00  2.7011144745910580e+00  3.2655861073298103e+00  4.0210096552708396e+00  5.0574665689696081e+00  6.5248229655994159e+00  8.6984549541787004e+00  1.2024936262200320e+01  0.0000000000000000e+00  1.1717111403632255e-02  4.5813956293463236e-02  9.8671700598953749e-02  1.6004775939281893e-01  2.2130525923536781e-01  2.7663724528117190e-01  3.2279559636978272e-01  3.5851659601859387e-01  3.8389801838509890e-01  3.9987098172503682e-01  4.0780156074974921e-01  4.0922013962170734e-01  4.0566060181007912e-01  3.9858634124980885e-01  3.8938377631415683e-01  3.7941209200217335e-01  3.7010902037851090e-01  3.6316754498562115e-01  3.6082036003308765e-01  3.6630396634504880e-01  3.8463402003286334e-01  4.2392924588350556e-01  4.9771520753452264e-01  6.2900779368048387e-01  8.5773025907832590e-01  1.2547088181184252e+00  1.9495893857467228e+00  3.1938468261693616e+00  5.5203776747665954e+00  1.0450159446074474e+01  0.0000000000000000e+00  1.5529035331836505e-02  5.6701703273983536e-02  1.1413874495406469e-01  1.6969028015912113e-01  2.1096992326530611e-01  2.3272563692921605e-01  2.3521288057910397e-01  2.2190061138228623e-01  1.9749350727732293e-01  1.6662694536773284e-01  1.3318163117516324e-01  1.0005163956338890e-01  6.9182317998425710e-02  4.1734948276102198e-02  1.8287752150591006e-02  -9.7385606516599201e-04  -1.6093866516718291e-02  -2.7203894767936918e-02  -3.4379236324951726e-02  -3.7442068209837323e-02  -3.5607076258056154e-02  -2.6746668473333585e-02  -5.7973787448547982e-03  3.8723156060922061e-02  1.3229967430440637e-01  3.3095171843048854e-01  7.5837273086663437e-01  1.6925138250779663e+00  3.8141091457479228e+00  9.0353680533196865e+00  0.0000000000000000e+00  1.7725774839622965e-02  5.9827660115604052e-02  1.1076403134259606e-01  1.4752859192191969e-01  1.5972543985715085e-01  1.4867515183592706e-01  1.2210391613057081e-01  8.9026355684802411e-02  5.6700117593472071e-02  2.9596181436122471e-02  9.6155953681465439e-03  -3.1705777371290357e-03  -9.7386001427806311e-03  -1.1502044121078584e-02  -9.9206053077431980e-03  -6.2936953800717061e-03  -1.6818465588806040e-03  3.0952172403932551e-03  7.4209620918130924e-03  1.0831541178372019e-02  1.2984650981818358e-02  1.3731560376278760e-02  1.3562107351189366e-02  1.5229208361822833e-02  2.8811706067889277e-02  8.6135763676099597e-02  2.7938121082549655e-01  8.6737561479459091e-01  2.5719663240796744e+00  7.7693410021692282e+00  0.0000000000000000e+00  1.8464300675539055e-02  5.7264522841413139e-02  9.6509766222145896e-02  1.1316826648567946e-01  1.0356935515009284e-01  7.7208036211848727e-02  4.6683482701034354e-02  2.1074827594143000e-02  4.2014059541014811e-03  -4.1781075418639933e-03  -6.3513530041958803e-03  -5.0223303785015150e-03  -2.4166992607358721e-03  1.0261602589381963e-05  1.5180710052333721e-03  1.8898003446202601e-03  1.2295864997153123e-03  -1.9871955979569529e-04  -2.0823399721073364e-03  -4.1322827200582736e-03  -6.1429576411999127e-03  -8.0712004865309984e-03  -1.0141774946750356e-02  -1.2725133323561014e-02  -1.4615635157245935e-02  -4.3943866803610523e-03  7.2589202884000684e-02  4.2067881993648554e-01  1.7542744577432787e+00  6.6412652501933476e+00  0.0000000000000000e+00  1.8040793172512865e-02  5.1292644477549755e-02  7.8263440063462836e-02  7.9759305355348670e-02  5.9879866501659364e-02  3.3203521441501148e-02  1.1690397860838805e-02  -2.6534032472451185e-04  -4.0865384900225813e-03  -3.3786341339815044e-03  -1.3222577563032421e-03  2.8929033800174719e-04  9.1419413590551721e-04  7.4218431235870662e-04  2.1804708116110604e-04  -2.4695937993023651e-04  -3.9221014390679863e-04  -1.1843226150315712e-04  5.4976248864639058e-04  1.5131959024351463e-03  2.6403812746832278e-03  3.7804530307207224e-03  4.6836522341985850e-03  4.6672855161230421e-03  2.2193940038703723e-03  -2.5021168777728088e-03  1.2949812688337944e-02  1.9198427867648432e-01  1.1694192525988427e+00  5.6407357942992595e+00  0.0000000000000000e+00  1.6798072479289029e-02  4.3809177435730193e-02  6.0438890943088276e-02  5.3072554865780136e-02  3.1637216349152814e-02  1.1402476964400124e-02  1.0320317210218090e-04  -2.9710703245389171e-03  -1.9661040446115659e-03  -3.2972830529073572e-04  4.8326115134436192e-04  4.6659276825821729e-04  1.1996693822109996e-04  -1.4737261799329683e-04  -1.9299736067500460e-04  -7.9494943343521470e-05  4.7704130323570067e-05  5.4139475922872778e-05  -1.3838055106298475e-04  -5.4338771943900955e-04  -1.1187743758566185e-03  -1.7709710263061091e-03  -2.3573791526126570e-03  -2.7910279056786442e-03  -3.8275662739755889e-03  -8.2939188763425774e-03  -1.2971323935864702e-02  6.5102510572475097e-02  7.6366684912067195e-01  4.7577556707311510e+00  0.0000000000000000e+00  1.5058768292486041e-02  3.6128818987192002e-02  4.5172288593137086e-02  3.4045109179109939e-02  1.5514710578756219e-02  2.4835054908569736e-03  -2.0159594777106804e-03  -1.5880163714427702e-03  -2.3069538674073284e-04  3.5368722450135863e-04  2.4421954342902422e-04  -9.3082127724035132e-06  -1.0615665848227885e-04  -5.2914554283978987e-05  2.8640613500657652e-05  5.5747492085145770e-05  2.7804210752446700e-05  -1.1057590612649172e-07  3.9178518537839542e-05  1.9275262286079414e-04  4.7307306596143896e-04  8.5513752094858121e-04  1.3128655767176279e-03  1.8815149305651863e-03  2.5469370483964466e-03  1.1587870092034460e-03  -7.6615795049661877e-03  1.3128718294584859e-02  4.8515227610756306e-01  3.9827359550701904e+00  0.0000000000000000e+00  1.3088552566580600e-02  2.9022410576291815e-02  3.3072729337691675e-02  2.1430859222877956e-02  7.1299689265295740e-03  -4.1150623318410035e-04  -1.5295352602547898e-03  -4.4955247248187403e-04  2.1776894523144427e-04  1.8597216191485724e-04  -9.0401938225661696e-06  -6.5385354524536611e-05  -1.7174562574081008e-05  2.2927042639917082e-05  1.6404623045469398e-05  -8.8158395694939229e-06  -1.9638957089147018e-05  -1.3434570880359424e-05  -1.7134941832173712e-05  -6.8026725165376101e-05  -1.9528010237266185e-04  -4.0814067841451004e-04  -7.1550926869214961e-04  -1.0461924250136686e-03  -1.1637907568628949e-03  -1.2769045749804872e-03  -7.9335845424066079e-03  -1.4060577394460380e-02  2.8790080161214893e-01  3.3064957622345008e+00  0.0000000000000000e+00  1.1084161455703902e-02  2.2851926618111092e-02  2.3939331913125458e-02  1.3455432298832479e-02  3.0899551657051151e-03  -9.8227825042108497e-04  -8.1185275382207177e-04  3.9063407317648773e-06  1.7621641958164274e-04  2.7293569373087870e-05  -4.4450056881289199e-05  -1.4356801786069608e-05  1.3794707556649503e-05  7.6243327250030815e-06  -5.3593662987712288e-06  -4.5519262135509582e-06  4.2786938441799559e-06  8.9127725581729034e-06  1.0220663604903621e-05  2.4897790391124490e-05  7.7456519168508014e-05  1.8529437402218022e-04  3.6504649655201679e-04  5.4275956740257975e-04  8.8006627832061340e-04  1.6148260346728776e-03  -7.6172223356605197e-04  -1.7423603470288113e-02  1.6195880618388145e-01  2.7202622464791961e+00  0.0000000000000000e+00  9.1772313704290356e-03  1.7714861923799039e-02  1.7251206088348136e-02  8.5571423740943391e-03  1.2749331046857358e-03  -8.5187692360282909e-04  -3.6558810649923784e-04  1.0177303385602367e-04  8.0200947691477158e-05  -1.9569293580706917e-05  -2.0377704472875259e-05  5.9083758233379392e-06  6.3625878136521557e-06  -2.5131363941770233e-06  -2.5653374450329327e-06  1.4048468826644509e-06  9.9227085901522613e-07  -2.6678362584339190e-06  -5.4097132687877359e-06  -9.9217757123327031e-06  -2.9824171517399483e-05  -7.7415390216776551e-05  -1.7707856799016776e-04  -2.9654856185460185e-04  -5.9974769978091277e-04  -2.5712332293347667e-04  -9.6948340871980674e-04  -1.7314616497533571e-02  7.2943761592934128e-02  2.2156706013963441e+00  0.0000000000000000e+00  7.4457774402500593e-03  1.3560138345618917e-02  1.2437970909301507e-02  5.5900173478587289e-03  5.1969816634789886e-04  -6.0674748325410908e-04  -1.5384853864287292e-04  8.7635140032799697e-05  2.7361581191653571e-05  -1.9223893308453348e-05  -4.4123285181036696e-06  5.5681516887378245e-06  3.2108643017588268e-07  -1.9163642935328840e-06  3.5406152493389867e-07  7.7399062549144492e-07  -3.7734076268289827e-07  5.6018509869043283e-08  1.9462314823314696e-06  4.0254329550977169e-06  1.1712931715933410e-05  2.8289704438009030e-05  8.6026282480576087e-05  1.4716891737531234e-04  2.9317118525959369e-04  3.7613177043284212e-04  1.8870511729084398e-03  -1.1595512864817640e-02  2.2811009791086825e-02  1.7847640599149996e+00  0.0000000000000000e+00  5.9276910489506878e-03  1.0267481870681910e-02  8.9998812892740730e-03  3.7919640197737574e-03  2.3866844256039237e-04  -4.0769636420627975e-04  -6.9422308049185526e-05  5.7628697576413515e-05  8.1260086896048809e-06  -1.1312845623498409e-05  2.1847656022073186e-07  2.5171671863280245e-06  -7.3988622250965813e-07  -4.7838869890742303e-07  4.3179573624591858e-07  -2.1302407473695161e-08  -2.0500504821672351e-07  7.0657813880714557e-08  -3.9883942639326276e-07  -1.2727383340414437e-06  -5.0852100071333217e-06  -7.7434803445015014e-06  -4.3944806670801423e-05  -4.8527217777052113e-05  -2.0599037770686191e-04  -2.5129023522414267e-04  5.5346382396459796e-04  -7.1416117447342959e-03  -1.1175957299145493e-02  1.4199938943011801e+00  0.0000000000000000e+00  4.6331543407178303e-03  7.6955834276196842e-03  6.5434758099856575e-03  2.6857288886260869e-03  1.5712298751213258e-04  -2.7213188903617568e-04  -4.1280399541721171e-05  3.5190270664566389e-05  3.4562847010197280e-06  -5.9470755402365678e-06  5.2526829780357355e-07  9.7725644787587911e-07  -4.1303935913206440e-07  -5.5291900605149955e-08  1.3089757748292288e-07  -6.4245827695960875e-08  2.9266286229731703e-09  3.5969687354852244e-08  1.1179604993570614e-07  6.5788052623296404e-08  2.6961855222865977e-06  -1.4819381290410313e-07  2.3960443398851761e-05  4.7443937560382745e-06  1.5016669141016081e-04  -9.4582454911593878e-05  1.1935799425856286e-03  -2.7477709340480100e-03  -2.5456232779078294e-02  1.1142194161578782e+00  0.0000000000000000e+00  3.5546878233328853e-03  5.7079664030647102e-03  4.7775692032880068e-03  1.9835470638272486e-03  1.5303568208569496e-04  -1.8238783438716402e-04  -3.4563320057100215e-05  2.0767110910142218e-05  3.2988914125049943e-06  -3.0872332906697681e-06  3.0400430075485742e-08  4.2228077561722073e-07  -1.1850261374965784e-07  -1.2681992451298158e-08  2.2363548962915001e-08  -1.3385332370284020e-08  4.3094631910752170e-09  1.3635889296690836e-08  -1.2021400143060632e-07  3.8593606094761666e-07  -2.0411844375568808e-06  3.3892418140548796e-06  -1.5868913186689428e-05  1.0488648950836821e-05  -7.2570344842029828e-05  -5.3967503026285488e-05  1.1240185803182916e-05  1.5122648013855488e-04  -3.3403281655911346e-02  8.6070797642505770e-01  0.0000000000000000e+00  2.6746186947129501e-03  4.1846927892297617e-03  3.4948914046324178e-03  1.5159610961001423e-03  1.7425187939539211e-04  -1.1960765702258786e-04  -3.4318872901074148e-05  1.0895763728619708e-05  3.8532572236375748e-06  -1.3829665408118837e-06  -3.2102385129529659e-07  1.6868455436259535e-07  4.5272273437214769e-09  -7.6494300250677888e-09  4.5250519079294805e-10  3.6172750759554592e-09  -1.1039297126742158e-08  1.5839218250263829e-08  3.2454297744006953e-08  -2.8750019313853622e-07  1.3303564364200279e-06  -3.3038365543966455e-06  1.0486631617163447e-05  -1.4659454306959321e-05  5.1004220366503340e-05  -2.3758690660639372e-05  7.1848695351493487e-05  1.8985046710360992e-03  -3.2624797238550544e-02  6.5313496537965465e-01  0.0000000000000000e+00  1.9702736397783777e-03  3.0259182487976386e-03  2.5515909624983348e-03  1.1846976227555604e-03  1.9862321755383428e-04  -7.1101271360864371e-05  -3.4223470029950272e-05  3.1490775911917621e-06  3.8059122122553606e-06  -1.2769092413902451e-07  -3.6761333496092163e-07  -5.8284602090726034e-09  2.1136632723980859e-08  2.5701098476888424e-09  -2.7475268938019197e-09  9.9111905580570954e-09  -3.0313781578711222e-08  9.6778121714456922e-08  -3.1317519708812785e-07  9.5303018765909290e-07  -2.6473299386845072e-06  6.4095986896046920e-06  -1.5042430626311376e-05  2.9227975200360768e-05  -6.8471832643335223e-05  1.2879505883029013e-04  -5.1039798078854684e-04  2.8041517664473704e-03  -3.0092630369503409e-02  4.8558381263557676e-01  0.0000000000000000e+00  1.4173757749355519e-03  2.1512351135252192e-03  1.8494465483606922e-03  9.3357427046688625e-04  2.1622212000090815e-04  -3.0205237550433141e-05  -3.1265134434565666e-05  -3.2618640224665900e-06  2.6600772083624251e-06  7.3702414885046304e-07  -1.2780626654734643e-07  -8.1613260851873629e-08  -9.5496813059464580e-09  5.3419998188581245e-10  -2.3360075745125732e-09  9.0379054933715330e-09  -2.4283787119380677e-08  4.3321332500531271e-08  -2.9732766708354758e-08  -1.2104937300916817e-07  5.9184188198808053e-07  -1.4870422158971710e-06  2.5257008248434791e-06  -2.2863133135376425e-07  -1.2899782747375351e-05  9.3889657233722058e-05  -4.3859767723956352e-04  2.8604313117883418e-03  -2.4680484917619375e-02  3.5254598714370372e-01  0.0000000000000000e+00  9.9212498007537919e-04  1.4971652496108042e-03  1.3220138464443778e-03  7.3127539703198550e-04  2.2215723048887992e-04  5.1869342432290683e-06  -2.3995568081950224e-05  -7.8151184664629346e-06  4.3826570351762342e-07  9.2340851612960271e-07  2.1639823612386945e-07  -1.1665118674796322e-08  -1.8369181100967484e-08  -7.0134312961200000e-09  -1.5061272838773929e-09  2.1462703030445482e-09  -2.0120726501555248e-08  9.1436358824641486e-08  -3.2737360494012298e-07  9.8280809938012825e-07  -2.5587642282625605e-06  5.9766145234871167e-06  -1.3049768743283826e-05  2.7744667180766340e-05  -6.3254811075343553e-05  1.6238303331355108e-04  -5.6147084553445647e-04  2.6384848084061315e-03  -1.9523267608880065e-02  2.4892099719188690e-01  0.0000000000000000e+00  6.7236603105772668e-04  1.0141079945427693e-03  9.2442768516232208e-04  5.6132906732714630e-04  2.1421288627036027e-04  3.4088027099937992e-05  -1.2458867853157267e-05  -9.3210012555860360e-06  -2.1432436249161660e-06  2.2605874712367087e-07  3.1865343856140612e-07  1.1614170383848758e-07  2.7837298340190883e-08  5.7685657163768915e-09  3.7087813413955106e-09  -1.8501323624243159e-09  1.0728792504671749e-08  -3.6779105998114778e-08  1.2706180316597870e-07  -3.3995272022584904e-07  7.0119958228933568e-07  -9.9975318159139040e-07  2.3492619087820886e-07  4.9688859308488968e-06  -2.5441686572280395e-05  1.0286046341550863e-04  -4.1712455172286211e-04  2.0735772729238182e-03  -1.4208479146514163e-02  1.7001639040494976e-01  0.0000000000000000e+00  4.3815625021927334e-04  6.6339897311333931e-04  6.2611958869246279e-04  4.1617192043995446e-04  1.9248058939944415e-04  5.3961895122931513e-05  1.4735224933790618e-06  -6.9395851781234921e-06  -3.7466922511880773e-06  -1.0110673728646287e-06  -6.9916702581626179e-08  7.8783177561245240e-08  5.2752509557273585e-08  2.5382178828809896e-08  1.1583825922455092e-08  4.2346622752797374e-09  -4.3303720861585122e-09  4.9208167019459533e-08  -1.9272500498411879e-07  5.6708504898294035e-07  -1.4114097468823091e-06  3.1424448619155835e-06  -6.7234846849960709e-06  1.4750545001433204e-05  -3.5669785677357172e-05  1.0025700066543899e-04  -3.4618611734353735e-04  1.5389301814659098e-03  -9.8525164038175458e-03  1.1154775374468755e-01  0.0000000000000000e+00  2.7195819961099580e-04  4.1476403932633584e-04  4.0570595941148918e-04  2.9338979714209747e-04  1.5950611294562498e-04  6.2506245583165946e-05  1.4323154923389603e-05  -1.2901303491446978e-06  -3.1668353734256173e-06  -1.8284534255669135e-06  -7.2269283232491212e-07  -2.2581567694891175e-07  -6.1790887196177795e-08  -1.5610045231916192e-08  -7.3432042669615582e-09  -6.0549821272181129e-09  1.1043347334169289e-08  -7.0336036341228573e-08  1.8477318938912088e-07  -4.4076941128165643e-07  8.0697116877946098e-07  -1.1858653331409741e-06  9.9661096844261992e-07  1.4856797187675520e-06  -1.2016589039738404e-05  5.1691831865239524e-05  -2.1178029994222829e-04  9.9617622680007729e-04  -6.2783674941757298e-03  6.9638713509867431e-02  0.0000000000000000e+00  1.5861443298412968e-04  2.4425534673537438e-04  2.4745464451644833e-04  1.9307093598013516e-04  1.2010458663985625e-04  5.9385618050162327e-05  2.2296426833801134e-05  5.1894332393424942e-06  -4.5569498147044272e-07  -1.3611107575014566e-06  -9.8847017307349689e-07  -5.4402035683393924e-07  -2.7564289371668851e-07  -1.3832475409005127e-07  -7.6384915982824162e-08  -4.0610999229511507e-08  -4.8870759588357999e-08  3.7384043285576360e-08  -1.6646923952023279e-07  3.0715659900636959e-07  -6.1025138869518721e-07  1.0447788144165574e-06  -1.8947650202585903e-06  3.9493615218001398e-06  -1.0375715230636479e-05  3.3417092486806498e-05  -1.2753857202528002e-04  5.9046132519162907e-04  -3.6936570087087476e-03  4.0820935336228381e-02  0.0000000000000000e+00  8.5209065188749801e-05  1.3266065489664599e-04  1.3891002938847284e-04  1.1579333144495108e-04  8.0431096789249307e-05  4.7185449980723360e-05  2.3275959563684570e-05  9.3591615380322975e-06  2.7148608388256196e-06  1.8777817905680512e-07  -4.8844211572185539e-07  -5.0103245417238893e-07  -3.7050212489413133e-07  -2.4160658556965608e-07  -1.5741103565487643e-07  -1.0570012243422336e-07  -5.2186575192184347e-08  -9.9274759791794110e-08  9.2574784647546263e-08  -2.8042230721574096e-07  4.3887451703284009e-07  -7.1670258051903087e-07  9.1840732414768153e-07  -7.6224424782575567e-07  -1.2176045804822594e-06  1.0980648819994089e-05  -5.6398306718170357e-05  2.9399520625527856e-04  -1.9274746517336763e-03  2.2034124196481458e-02  0.0000000000000000e+00  4.0884638344662520e-05  6.4338993591144466e-05  6.9397132688217103e-05  6.1150281353892613e-05  4.6375179593167034e-05  3.0894433677640056e-05  1.8210409464841824e-05  9.4739241424712821e-06  4.2644609031523750e-06  1.5590841541007598e-06  3.3311308347066181e-07  -1.1766133632347800e-07  -2.4053240101420773e-07  -2.2391445975589408e-07  -1.8497485896837790e-07  -1.2857966807268751e-07  -1.1719212533764174e-07  -1.9715332373706474e-08  -1.5299609246734682e-07  1.5584008591160562e-07  -3.1049335765810857e-07  3.6682569482707082e-07  -4.3431455042879806e-07  4.4235134610871297e-07  -8.0546104457333393e-07  3.6231180481199834e-06  -2.0339282925266114e-05  1.2015575452530495e-04  -8.6062065315842002e-04  1.0626024400309344e-02  0.0000000000000000e+00  1.6660489664169031e-05  2.6425871459280022e-05  2.9216295985826865e-05  2.6911594222921405e-05  2.1826800383029009e-05  1.5951109873755507e-05  1.0609797985780057e-05  6.4394807241879404e-06  3.5432900256249144e-06  1.7342708880108195e-06  7.0251794237682835e-07  1.842