<?xml version="1.0"?>
<VTKFile type="UnstructuredGrid"  version="0.1"  >
<UnstructuredGrid>
<Piece  NumberOfPoints="961" NumberOfCells="1800">
<Points>
<DataArray  type="Float64"  NumberOfComponents="3"  format="ascii">-1 -1 0  -0.9333333333333333 -1 0  -0.8666666666666667 -1 0  -0.8 -1 0  -0.7333333333333334 -1 0  -0.6666666666666667 -1 0  -0.6 -1 0  -0.5333333333333333 -1 0  -0.4666666666666667 -1 0  -0.4 -1 0  -0.3333333333333334 -1 0  -0.2666666666666667 -1 0  -0.2 -1 0  -0.1333333333333333 -1 0  -0.06666666666666665 -1 0  0 -1 0  0.06666666666666665 -1 0  0.1333333333333333 -1 0  0.2 -1 0  0.2666666666666666 -1 0  0.3333333333333333 -1 0  0.3999999999999999 -1 0  0.4666666666666666 -1 0  0.5333333333333334 -1 0  0.6000000000000001 -1 0  0.6666666666666667 -1 0  0.7333333333333334 -1 0  0.8 -1 0  0.8666666666666667 -1 0  0.9333333333333333 -1 0  1 -1 0  -1 -0.9333333333333333 0  -0.9333333333333333 -0.9333333333333333 0  -0.8666666666666667 -0.9333333333333333 0  -0.8 -0.9333333333333333 0  -0.7333333333333334 -0.9333333333333333 0  -0.6666666666666667 -0.9333333333333333 0  -0.6 -0.9333333333333333 0  -0.5333333333333333 -0.9333333333333333 0  -0.4666666666666667 -0.9333333333333333 0  -0.4 -0.9333333333333333 0  -0.3333333333333334 -0.9333333333333333 0  -0.2666666666666667 -0.9333333333333333 0  -0.2 -0.9333333333333333 0  -0.1333333333333333 -0.9333333333333333 0  -0.06666666666666665 -0.9333333333333333 0  0 -0.9333333333333333 0  0.06666666666666665 -0.9333333333333333 0  0.1333333333333333 -0.9333333333333333 0  0.2 -0.9333333333333333 0  0.2666666666666666 -0.9333333333333333 0  0.3333333333333333 -0.9333333333333333 0  0.3999999999999999 -0.9333333333333333 0  0.4666666666666666 -0.9333333333333333 0  0.5333333333333334 -0.9333333333333333 0  0.6000000000000001 -0.9333333333333333 0  0.6666666666666667 -0.9333333333333333 0  0.7333333333333334 -0.9333333333333333 0  0.8 -0.9333333333333333 0  0.8666666666666667 -0.9333333333333333 0  0.9333333333333333 -0.9333333333333333 0  1 -0.9333333333333333 0  -1 -0.8666666666666667 0  -0.9333333333333333 -0.8666666666666667 0  -0.8666666666666667 -0.8666666666666667 0  -0.8 -0.8666666666666667 0  -0.7333333333333334 -0.8666666666666667 0  -0.6666666666666667 -0.8666666666666667 0  -0.6 -0.8666666666666667 0  -0.5333333333333333 -0.8666666666666667 0  -0.4666666666666667 -0.8666666666666667 0  -0.4 -0.8666666666666667 0  -0.3333333333333334 -0.8666666666666667 0  -0.2666666666666667 -0.8666666666666667 0  -0.2 -0.8666666666666667 0  -0.1333333333333333 -0.8666666666666667 0  -0.06666666666666665 -0.8666666666666667 0  0 -0.8666666666666667 0  0.06666666666666665 -0.8666666666666667 0  0.1333333333333333 -0.8666666666666667 0  0.2 -0.8666666666666667 0  0.2666666666666666 -0.8666666666666667 0  0.3333333333333333 -0.8666666666666667 0  0.3999999999999999 -0.8666666666666667 0  0.4666666666666666 -0.8666666666666667 0  0.5333333333333334 -0.8666666666666667 0  0.6000000000000001 -0.8666666666666667 0  0.6666666666666667 -0.8666666666666667 0  0.7333333333333334 -0.8666666666666667 0  0.8 -0.8666666666666667 0  0.8666666666666667 -0.8666666666666667 0  0.9333333333333333 -0.8666666666666667 0  1 -0.8666666666666667 0  -1 -0.8 0  -0.9333333333333333 -0.8 0  -0.8666666666666667 -0.8 0  -0.8 -0.8 0  -0.7333333333333334 -0.8 0  -0.6666666666666667 -0.8 0  -0.6 -0.8 0  -0.5333333333333333 -0.8 0  -0.4666666666666667 -0.8 0  -0.4 -0.8 0  -0.3333333333333334 -0.8 0  -0.2666666666666667 -0.8 0  -0.2 -0.8 0  -0.1333333333333333 -0.8 0  -0.06666666666666665 -0.8 0  0 -0.8 0  0.06666666666666665 -0.8 0  0.1333333333333333 -0.8 0  0.2 -0.8 0  0.2666666666666666 -0.8 0  0.3333333333333333 -0.8 0  0.3999999999999999 -0.8 0  0.4666666666666666 -0.8 0  0.5333333333333334 -0.8 0  0.6000000000000001 -0.8 0  0.6666666666666667 -0.8 0  0.7333333333333334 -0.8 0  0.8 -0.8 0  0.8666666666666667 -0.8 0  0.9333333333333333 -0.8 0  1 -0.8 0  -1 -0.7333333333333334 0  -0.9333333333333333 -0.7333333333333334 0  -0.8666666666666667 -0.7333333333333334 0  -0.8 -0.7333333333333334 0  -0.7333333333333334 -0.7333333333333334 0  -0.6666666666666667 -0.7333333333333334 0  -0.6 -0.7333333333333334 0  -0.5333333333333333 -0.7333333333333334 0  -0.4666666666666667 -0.7333333333333334 0  -0.4 -0.7333333333333334 0  -0.3333333333333334 -0.7333333333333334 0  -0.2666666666666667 -0.7333333333333334 0  -0.2 -0.7333333333333334 0  -0.1333333333333333 -0.7333333333333334 0  -0.06666666666666665 -0.7333333333333334 0  0 -0.7333333333333334 0  0.06666666666666665 -0.7333333333333334 0  0.1333333333333333 -0.7333333333333334 0  0.2 -0.7333333333333334 0  0.2666666666666666 -0.7333333333333334 0  0.3333333333333333 -0.7333333333333334 0  0.3999999999999999 -0.7333333333333334 0  0.4666666666666666 -0.7333333333333334 0  0.5333333333333334 -0.7333333333333334 0  0.6000000000000001 -0.7333333333333334 0  0.6666666666666667 -0.7333333333333334 0  0.7333333333333334 -0.7333333333333334 0  0.8 -0.7333333333333334 0  0.8666666666666667 -0.7333333333333334 0  0.9333333333333333 -0.7333333333333334 0  1 -0.7333333333333334 0  -1 -0.6666666666666667 0  -0.9333333333333333 -0.6666666666666667 0  -0.8666666666666667 -0.6666666666666667 0  -0.8 -0.6666666666666667 0  -0.7333333333333334 -0.6666666666666667 0  -0.6666666666666667 -0.6666666666666667 0  -0.6 -0.6666666666666667 0  -0.5333333333333333 -0.6666666666666667 0  -0.4666666666666667 -0.6666666666666667 0  -0.4 -0.6666666666666667 0  -0.3333333333333334 -0.6666666666666667 0  -0.2666666666666667 -0.6666666666666667 0  -0.2 -0.6666666666666667 0  -0.1333333333333333 -0.6666666666666667 0  -0.06666666666666665 -0.6666666666666667 0  0 -0.6666666666666667 0  0.06666666666666665 -0.6666666666666667 0  0.1333333333333333 -0.6666666666666667 0  0.2 -0.6666666666666667 0  0.2666666666666666 -0.6666666666666667 0  0.3333333333333333 -0.6666666666666667 0  0.3999999999999999 -0.6666666666666667 0  0.4666666666666666 -0.6666666666666667 0  0.5333333333333334 -0.6666666666666667 0  0.6000000000000001 -0.6666666666666667 0  0.6666666666666667 -0.6666666666666667 0  0.7333333333333334 -0.6666666666666667 0  0.8 -0.6666666666666667 0  0.8666666666666667 -0.6666666666666667 0  0.9333333333333333 -0.6666666666666667 0  1 -0.6666666666666667 0  -1 -0.6 0  -0.9333333333333333 -0.6 0  -0.8666666666666667 -0.6 0  -0.8 -0.6 0  -0.7333333333333334 -0.6 0  -0.6666666666666667 -0.6 0  -0.6 -0.6 0  -0.5333333333333333 -0.6 0  -0.4666666666666667 -0.6 0  -0.4 -0.6 0  -0.3333333333333334 -0.6 0  -0.2666666666666667 -0.6 0  -0.2 -0.6 0  -0.1333333333333333 -0.6 0  -0.06666666666666665 -0.6 0  0 -0.6 0  0.06666666666666665 -0.6 0  0.1333333333333333 -0.6 0  0.2 -0.6 0  0.2666666666666666 -0.6 0  0.3333333333333333 -0.6 0  0.3999999999999999 -0.6 0  0.4666666666666666 -0.6 0  0.5333333333333334 -0.6 0  0.6000000000000001 -0.6 0  0.6666666666666667 -0.6 0  0.7333333333333334 -0.6 0  0.8 -0.6 0  0.8666666666666667 -0.6 0  0.9333333333333333 -0.6 0  1 -0.6 0  -1 -0.5333333333333333 0  -0.9333333333333333 -0.5333333333333333 0  -0.8666666666666667 -0.5333333333333333 0  -0.8 -0.5333333333333333 0  -0.7333333333333334 -0.5333333333333333 0  -0.6666666666666667 -0.5333333333333333 0  -0.6 -0.5333333333333333 0  -0.5333333333333333 -0.5333333333333333 0  -0.4666666666666667 -0.5333333333333333 0  -0.4 -0.5333333333333333 0  -0.3333333333333334 -0.5333333333333333 0  -0.2666666666666667 -0.5333333333333333 0  -0.2 -0.5333333333333333 0  -0.1333333333333333 -0.5333333333333333 0  -0.06666666666666665 -0.5333333333333333 0  0 -0.5333333333333333 0  0.06666666666666665 -0.5333333333333333 0  0.1333333333333333 -0.5333333333333333 0  0.2 -0.5333333333333333 0  0.2666666666666666 -0.5333333333333333 0  0.3333333333333333 -0.5333333333333333 0  0.3999999999999999 -0.5333333333333333 0  0.4666666666666666 -0.5333333333333333 0  0.5333333333333334 -0.5333333333333333 0  0.6000000000000001 -0.5333333333333333 0  0.6666666666666667 -0.5333333333333333 0  0.7333333333333334 -0.5333333333333333 0  0.8 -0.5333333333333333 0  0.8666666666666667 -0.5333333333333333 0  0.9333333333333333 -0.5333333333333333 0  1 -0.5333333333333333 0  -1 -0.4666666666666667 0  -0.9333333333333333 -0.4666666666666667 0  -0.8666666666666667 -0.4666666666666667 0  -0.8 -0.4666666666666667 0  -0.7333333333333334 -0.4666666666666667 0  -0.6666666666666667 -0.4666666666666667 0  -0.6 -0.4666666666666667 0  -0.5333333333333333 -0.4666666666666667 0  -0.4666666666666667 -0.4666666666666667 0  -0.4 -0.4666666666666667 0  -0.3333333333333334 -0.4666666666666667 0  -0.2666666666666667 -0.4666666666666667 0  -0.2 -0.4666666666666667 0  -0.1333333333333333 -0.4666666666666667 0  -0.06666666666666665 -0.4666666666666667 0  0 -0.4666666666666667 0  0.06666666666666665 -0.4666666666666667 0  0.1333333333333333 -0.4666666666666667 0  0.2 -0.4666666666666667 0  0.2666666666666666 -0.4666666666666667 0  0.3333333333333333 -0.4666666666666667 0  0.3999999999999999 -0.4666666666666667 0  0.4666666666666666 -0.4666666666666667 0  0.5333333333333334 -0.4666666666666667 0  0.6000000000000001 -0.4666666666666667 0  0.6666666666666667 -0.4666666666666667 0  0.7333333333333334 -0.4666666666666667 0  0.8 -0.4666666666666667 0  0.8666666666666667 -0.4666666666666667 0  0.9333333333333333 -0.4666666666666667 0  1 -0.4666666666666667 0  -1 -0.4 0  -0.9333333333333333 -0.4 0  -0.8666666666666667 -0.4 0  -0.8 -0.4 0  -0.7333333333333334 -0.4 0  -0.6666666666666667 -0.4 0  -0.6 -0.4 0  -0.5333333333333333 -0.4 0  -0.4666666666666667 -0.4 0  -0.4 -0.4 0  -0.3333333333333334 -0.4 0  -0.2666666666666667 -0.4 0  -0.2 -0.4 0  -0.1333333333333333 -0.4 0  -0.06666666666666665 -0.4 0  0 -0.4 0  0.06666666666666665 -0.4 0  0.1333333333333333 -0.4 0  0.2 -0.4 0  0.2666666666666666 -0.4 0  0.3333333333333333 -0.4 0  0.3999999999999999 -0.4 0  0.4666666666666666 -0.4 0  0.5333333333333334 -0.4 0  0.6000000000000001 -0.4 0  0.6666666666666667 -0.4 0  0.7333333333333334 -0.4 0 
[...]
<PointData  Scalars="f_24"> 
<DataArray  type="Float64"  Name="f_24"  format="ascii">0.0000000000000000e+00  0.0000000000000000e+00  0.0000000000000000e+00  0.0000000000000000e+00  0.0000000000000000e+00  0.0000000000000000e+00  0.0000000000000000e+00  0.0000000000000000e+00  0.0000000000000000e+00  0.0000000000000000e+00  0.0000000000000000e+00  0.0000000000000000e+00  0.0000000000000000e+00  0.0000000000000000e+00  0.0000000000000000e+00  0.0000000000000000e+00  0.0000000000000000e+00  0.0000000000000000e+00  0.0000000000000000e+00  0.0000000000000000e+00  0.0000000000000000e+00  0.0000000000000000e+00  0.0000000000000000e+00  0.0000000000000000e+00  0.0000000000000000e+00  0.0000000000000000e+00  0.0000000000000000e+00  0.0000000000000000e+00  0.0000000000000000e+00  0.0000000000000000e+00  1.2092539863291609e+01  0.0000000000000000e+00  5.8061985727943036e-02  1.1409725085429787e-01  1.6664152889096770e-01  2.1627086114171587e-01  2.6359964142624259e-01  3.0919037094445218e-01  3.5363190619606577e-01  3.9755865782053801e-01  4.4166914986856859e-01  4.8674494622781767e-01  5.3367200523503300e-01  5.8346890856191991e-01  6.3732606439141126e-01  6.9666058024335586e-01  7.6319311308131843e-01  8.3905539929690065e-01  9.2694111665644396e-01  1.0303189971236437e+00  1.1537368217897155e+00  1.3032602762513361e+00  1.4871155238224389e+00  1.7166462898765957e+00  2.0077704169228916e+00  2.3832610091439048e+00  2.8764611847762032e+00  3.5376541550057414e+00  4.4459034063486769e+00  5.7327404429226494e+00  7.6399539454338337e+00  1.0559041588949077e+01  0.0000000000000000e+00  1.1189357296551357e-01  2.1331237455042401e-01  2.9695440820984198e-01  3.6194712383166888e-01  4.0912514966451113e-01  4.4027000795221677e-01  4.5776364404779146e-01  4.6416885441229511e-01  4.6196430208043210e-01  4.5338150729569487e-01  4.4033209910772542e-01  4.2440119999817938e-01  4.0688328388355177e-01  3.8884479696484098e-01  3.7120521640891269e-01  3.5483611318564545e-01  3.4068696405883969e-01  3.2995799909682932e-01  3.2435782655153722e-01  3.2651281993757070e-01  3.4064643649820170e-01  3.7373853665802370e-01  4.3754435788454915e-01  5.5217659658538432e-01  7.5261320569157286e-01  1.1009885684174527e+00  1.7110883529928771e+00  2.8037296095482152e+00  4.8467204000149797e+00  9.1762372619893426e+00  0.0000000000000000e+00  1.5917063205006671e-01  2.9002926130600681e-01  3.7612853123774859e-01  4.1746385092416671e-01  4.2099299601370982e-01  3.9653588181307559e-01  3.5421148933763197e-01  3.0268847190601966e-01  2.4853847029696724e-01  1.9621663586690224e-01  1.4839846049060582e-01  1.0642741943924690e-01  7.0740040410850538e-02  4.1211789311470515e-02  1.7411872220949243e-02  -1.2205606488856872e-03  -1.5256787816431815e-02  -2.5189605093163297e-02  -3.1342939079260355e-02  -3.3730454236177612e-02  -3.1769668978768643e-02  -2.3656085187680996e-02  -4.9779295567065427e-03  3.4331456577183860e-02  1.1664819036909228e-01  2.9116072680003990e-01  6.6650845206007125e-01  1.4867113902579652e+00  3.3497088408207598e+00  7.9339154043056253e+00  0.0000000000000000e+00  1.9863929451853468e-01  3.4258581195654153e-01  4.0723477086201398e-01  4.0189740993840256e-01  3.4978422647374952e-01  2.7540002239659300e-01  1.9808218110588238e-01  1.2972871886591450e-01  7.5712382362571856e-02  3.6863401395950783e-02  1.1482597458721834e-02  -3.1666249234343761e-03  -9.9420754343640793e-03  -1.1363415792839804e-02  -9.4493422189776601e-03  -5.7171645997664434e-03  -1.2563855690679421e-03  3.1743864123411681e-03  7.0524357976024573e-03  1.0010743763671797e-02  1.1791759262312343e-02  1.2302038485215916e-02  1.1999794739910962e-02  1.3322558106852409e-02  2.5129526426896802e-02  7.5382705061820335e-02  2.4499796746231711e-01  7.6133698809859196e-01  2.2579945479337500e+00  6.8222228352685761e+00  0.0000000000000000e+00  2.2988587303230984e-01  3.7336056970449383e-01  4.0272378477179105e-01  3.4719052628791386e-01  2.5308472233636425e-01  1.5813416539862482e-01  8.3138751542692221e-02  3.3725310310727251e-02  6.5886891641486816e-03  -4.9214161093658277e-03  -7.2996752607863780e-03  -5.4377115843139484e-03  -2.4172456324302294e-03  1.3723963549009641e-04  1.5804543960265794e-03  1.8372155051971516e-03  1.1142399354953799e-03  -2.7788947839318414e-04  -2.0241304347361081e-03  -3.8589931879771991e-03  -5.6074485902743694e-03  -7.2453085984947952e-03  -8.9854212563527311e-03  -1.1168925105383037e-02  -1.2744252523533455e-02  -3.7077039436233623e-03  6.3966828210447538e-02  3.6959066699206078e-01  1.5407857366039772e+00  5.8316646717262790e+00  0.0000000000000000e+00  2.5315181657223607e-01  3.8677831153694997e-01  3.7686175633107899e-01  2.8038256563346442e-01  1.6637711081814036e-01  7.6948427570206313e-02  2.3877821726362575e-02  3.7815709144503178e-04  -5.6711731607895118e-03  -4.3447809918583519e-03  -1.5135037348748184e-03  4.1053271559916453e-04  1.0273649618235650e-03  7.6243494667785643e-04  1.8703040582235695e-04  -2.6847002796551427e-04  -3.7752917965072494e-04  -8.3237187792577580e-05  5.6136389117214427e-04  1.4478470729422448e-03  2.4512153333365329e-03  3.4388087366273505e-03  4.1961591724309069e-03  4.1336025681177066e-03  1.9246787755012730e-03  -2.2639802919492665e-03  1.1226011519684970e-02  1.6847306629202069e-01  1.0265669509226560e+00  4.9531043280042439e+00  0.0000000000000000e+00  2.6912091502991786e-01  3.8772548825227177e-01  3.4146777199081879e-01  2.1782989932988545e-01  1.0232589341981989e-01  3.1209843117492187e-02  1.3882874931909236e-03  -4.9438717650004778e-03  -2.9522065419541159e-03  -3.8381580868071654e-04  6.6052672756624134e-04  5.5084066334078782e-04  1.0758297599516444e-04  -1.7923343539503914e-04  -2.0304151858531087e-04  -7.2090477051602535e-05  5.2260589024464353e-05  4.5429359559602573e-05  -1.5148735167106329e-04  -5.3607631917202618e-04  -1.0598287397273307e-03  -1.6347085227826953e-03  -2.1340602143206065e-03  -2.4875575236795490e-03  -3.3545849988028116e-03  -7.2504797626433293e-03  -1.1283230952604459e-02  5.7226222424531292e-02  6.7080982695141989e-01  4.1777635159054149e+00  0.0000000000000000e+00  2.7871468183575970e-01  3.8058924152111434e-01  3.0460370115939417e-01  1.6661146085295236e-01  6.0319380678483227e-02  9.3167437224423843e-03  -4.0267674192675197e-03  -2.9728340255789662e-03  -3.2132645305354827e-04  5.5875604624871058e-04  3.1837827021061866e-04  -3.6073169207651002e-05  -1.3265550860968860e-04  -5.2672887363931602e-05  3.8741636831378999e-05  6.0053510465776964e-05  2.6702807760280067e-05  1.4502096534787643e-06  4.7232807246303966e-05  2.0105571550781625e-04  4.6629753818284617e-04  8.1458645400815221e-04  1.2179872072682341e-03  1.7099644569979625e-03  2.2669639966074445e-03  1.0357831548374406e-03  -6.7819236424837854e-03  1.1516532074612828e-02  4.2583396818882702e-01  3.4972222447101733e+00  0.0000000000000000e+00  2.8292815770550522e-01  3.6884024500167317e-01  2.7093027609228149e-01  1.2805474167919334e-01  3.4945373021399842e-02  4.1153796618804907e-04  -3.7143506420160444e-03  -9.3019223311572587e-04  4.4174806691865898e-04  2.9213855065652559e-04  -3.5069678330225411e-05  -9.3217526579824326e-05  -1.4071737917029542e-05  3.1036859675093684e-05  1.6685878483677845e-05  -1.2683095473205129e-05  -2.1677968201447919e-05  -1.4004449289969913e-05  -1.9648956511313354e-05  -7.2725912475243482e-05  -1.9536523892082184e-04  -3.9055958006682803e-04  -6.6036500170471059e-04  -9.4536124627117991e-04  -1.0255958230097363e-03  -1.1234942506514114e-03  -6.9107838521632855e-03  -1.2339741774111464e-02  2.5293928301997548e-01  2.9034188211763148e+00  0.0000000000000000e+00  2.8271757219825799e-01  3.5497078629775120e-01  2.4264667594565092e-01  1.0078041831881586e-01  2.0560940771876385e-02  -2.4721524658998201e-03  -2.3613605266124848e-03  2.7525826650359409e-05  3.7989324725811526e-04  2.6641620698742185e-05  -7.9665337906461076e-05  -1.5623702308427796e-05  2.2988548952185440e-05  7.6023655089724591e-06  -7.9326043242062941e-06  -4.5657973124413939e-06  6.0984019671093206e-06  1.0234807981183738e-05  1.1904788503800217e-05  2.9378484076649065e-05  8.5469911717778765e-05  1.9451754844860522e-04  3.6644631705744761e-04  5.3721974343676291e-04  8.2860678673072903e-04  1.4816007655045870e-03  -6.6132664049259673e-04  -1.5266043922530358e-02  1.4213477146997083e-01  2.3886498495390844e+00  0.0000000000000000e+00  2.7893552563446689e-01  3.4061303100951873e-01  2.2041821191502339e-01  8.2597555272365189e-02  1.2902746394550454e-02  -2.9753892420458909e-03  -1.3266779124183031e-03  2.9867079411977304e-04  1.9359598822468911e-04  -5.8625767563129086e-05  -3.4984720797445774e-05  1.4292289301073548e-05  9.3843709829460319e-06  -5.5682691982223809e-06  -2.7622978633642400e-06  2.1985193225648763e-06  7.9957442688153135e-07  -3.8343251012340599e-06  -6.5865046674098272e-06  -1.1397426820742708e-05  -3.0713730164903951e-05  -7.3883618724074725e-05  -1.5725646041502665e-04  -2.5673884650486941e-04  -5.0454471283731066e-04  -2.1124951994921863e-04  -8.0753611457811411e-04  -1.5202834058211431e-02  6.4114449189898115e-02  1.9455702315111427e+00  0.0000000000000000e+00  2.7230242025982193e-01  3.2671876250043952e-01  2.0407251683649694e-01  7.1437279028086262e-02  9.2318291348607567e-03  -2.7218330416028769e-03  -7.6022570782096916e-04  3.0486438857240533e-04  7.8440701452433547e-05  -5.8506332041489510e-05  -4.8633695905490052e-06  1.2306009200607861e-05  -5.6038628527144841e-07  -3.7097235011212268e-06  1.3439456969875021e-06  9.0917183565886979e-07  -6.3503876606944280e-07  1.7782485874997976e-07  2.4497479760144190e-06  5.0194365058092624e-06  1.5454599240086681e-05  4.1128529509665271e-05  1.1113452220932634e-04  1.9459495085689059e-04  3.3939478509453276e-04  4.3015734681856391e-04  1.7194985980062852e-03  -1.0124110782716500e-02  2.0017582354941828e-02  1.5671931662825924e+00  0.0000000000000000e+00  2.6340227405298078e-01  3.1373545803970332e-01  1.9304357842807432e-01  6.5694756489309558e-02  7.9934422870891371e-03  -2.3164280328985412e-03  -5.2603970261326885e-04  2.4938069256187238e-04  3.3593648095708280e-05  -4.2057885228053628e-05  3.8533251674498528e-06  6.4502515606647078e-06  -2.2539506707479220e-06  -1.0968019754687140e-06  1.1688302915196689e-06  -2.1842689375915652e-07  -2.9332768998521438e-07  5.9518268965852906e-08  -9.3569331254913769e-07  -2.5001102756316491e-06  -4.8844847667997723e-06  -1.1784256840080138e-06  -1.5738434391083072e-05  3.6440923711586543e-06  -1.0544115316760053e-04  -1.4674254240828387e-04  5.5531024886048500e-04  -6.2465532052808567e-03  -9.7903944660219493e-03  1.2468901505209611e+00  0.0000000000000000e+00  2.5269169948124187e-01  3.0175270009025956e-01  1.8661555000811858e-01  6.4273620333213793e-02  8.4400056192112279e-03  -1.9032051678506458e-03  -4.9368644588084854e-04  1.9341215289253019e-04  2.7850194596192783e-05  -2.9833018327862208e-05  2.8102334051324892e-06  3.8410630023249945e-06  -1.4194291562202508e-06  -3.9102404239756832e-07  4.3398585811430148e-07  -1.6658055207852847e-07  4.9292161780820286e-08  1.1460900979440317e-07  -1.8705533768844578e-07  -7.8016386199021153e-07  3.2657406858465091e-06  1.2467235571978961e-05  6.2970642503396964e-05  9.5454973999048527e-05  2.6667057371520809e-04  7.3442402990081835e-05  1.1733940956727663e-03  -2.3321129852098030e-03  -2.2323333289487619e-02  9.7839097837120859e-01  0.0000000000000000e+00  2.4051836815208130e-01  2.9061083210205263e-01  1.8403170418439849e-01  6.6504110428909094e-02  1.0357819495477989e-02  -1.4120391120162675e-03  -5.8474034318059228e-04  1.3525610877905279e-04  4.1504474208725084e-05  -2.1102865208663732e-05  -1.5897029819310867e-06  3.0006535534024049e-06  -1.8045428852503744e-07  -2.6427522914020088e-07  6.2999655388096177e-08  -5.6588224130528871e-08  6.9377408782598593e-08  1.8007691080329928e-07  -5.1346312209610159e-07  -1.6483460775241636e-06  -2.7021397329233875e-06  1.6142785668051904e-05  3.8507517372071064e-05  1.2162948291484438e-04  1.0505737195582682e-04  1.3233658252841297e-04  1.4682904925856000e-04  2.0091539751543205e-04  -2.9319995297404547e-02  7.5578374145572558e-01  0.0000000000000000e+00  2.2713604301488471e-01  2.7998068437670037e-01  1.8451626806225246e-01  7.2018941954942198e-02  1.3901262166585639e-02  -6.2522657269256958e-04  -7.4269815638144108e-04  4.6803018356885767e-05  6.2142975362450314e-05  -8.8154291348829339e-06  -6.5370574801201292e-06  1.1442214862680158e-06  8.1409472745910181e-07  1.3390675270608511e-07  -1.6182298695750760e-08  -7.2995898880816712e-08  1.5189996573519642e-07  4.1028341142192175e-07  -6.6058153905611967e-07  -3.6170977417586148e-06  -2.9252552152088783e-08  1.8817864536008517e-05  9.0345727684586758e-05  1.5799907293928225e-04  2.9578472077831041e-04  2.4740068117209485e-04  2.7661478943479163e-04  1.7809554427335563e-03  -2.8595214506114731e-02  5.7351482887433392e-01  0.0000000000000000e+00  2.1273202662518442e-01  2.6941489226460447e-01  1.8725275264913507e-01  8.0608353020396234e-02  1.9496574218689385e-02  8.5285633485759872e-04  -8.6824862823743556e-04  -1.0998235412127045e-04  6.8104578096447906e-05  1.3525518950984399e-05  -6.6135399112091103e-06  -2.6885149821306935e-06  -1.7762726977484753e-07  -4.6543802412092639e-08  -2.4173288462058654e-07  -6.4733643888199666e-08  5.5194145545701746e-07  7.1619448770090508e-07  -2.3006568745618546e-06  -5.3076756998604263e-06  -2.4499010085776814e-06  4.4799174210678133e-05  1.1497689213629067e-04  2.7689534310912812e-04  2.8529295914410803e-04  4.6594996232331349e-04  -1.9630368785659806e-04  2.5892043523737941e-03  -2.6405045840081999e-02  4.2638892720428601e-01  0.0000000000000000e+00  1.9742893862948982e-01  2.5839104132802659e-01  1.9132956633831288e-01  9.2062383839015993e-02  2.7756057958398261e-02  3.6758313966370570e-03  -7.0883951588174006e-04  -3.4654082000690043e-04  1.2098118453539537e-05  3.6925366960760982e-05  6.9044339087095986e-06  -2.3078763366145695e-06  -2.0754078558310599e-06  -1.1471421674772658e-06  -3.7160249232413056e-07  7.5015023128095873e-07  1.5246322805281716e-06  -2.5217452605027953e-07  -6.2948208334909809e-06  -1.0237589972968452e-05  9.7702814322821719e-06  7.9651208595642373e-05  2.2032069814864339e-04  3.8157867334289765e-04  4.8341876115130886e-04  5.5764555779762640e-04  -4.0933240518880219e-05  2.6748317107193166e-03  -2.1609114026655569e-02  3.0956902050026525e-01  0.0000000000000000e+00  1.8133012818124425e-01  2.4633856617272443e-01  1.9569737850515068e-01  1.0598314556658209e-01  3.9346491557880788e-02  8.8273651074658680e-03  3.1874548406632278e-04  -5.3234883792470302e-04  -1.6111493952238639e-04  9.7075715399494539e-06  2.3951838655292387e-05  1.1004577311931125e-05  4.1992316191639483e-06  2.6001804078390322e-06  2.9619226365136352e-06  3.1589044764643423e-06  5.6294688012629828e-07  -6.8283332363713649e-06  -1.5979575172098579e-05  -7.6853861534242087e-06  4.3720253235297784e-05  1.8336840005815386e-04  3.6857485686002449e-04  6.1243332563275710e-04  6.3551919162393869e-04  7.7126467311230962e-04  -7.7374614626612173e-05  2.5112746020881172e-03  -1.7106557762795387e-02  2.1857639029438583e-01  0.0000000000000000e+00  1.6448462111087431e-01  2.3267460842837068e-01  1.9911166998203392e-01  1.2158130268173908e-01  5.4740312507129060e-02  1.7593455773880797e-02  3.3462830436709660e-03  -1.3130104392863881e-04  -3.6719394010545131e-04  -1.4356732387625718e-04  -2.5000108156082707e-05  6.3514960682037476e-06  9.3973878596270535e-06  6.9992997461290884e-06  3.1458142324789404e-06  -3.6115606640614869e-06  -1.4467803598358806e-05  -2.5364855434673854e-05  -2.0159751976304509e-05  3.0674508406480413e-05  1.6449715787555892e-04  3.8954672851654906e-04  6.7090047211929753e-04  9.0334611187216222e-04  9.4224538767778883e-04  9.0001393164680134e-04  1.5452318183426027e-04  2.0458333429267460e-03  -1.2409738954699788e-02  1.4929061559619278e-01  0.0000000000000000e+00  1.4698469944660081e-01  2.1684043694616434e-01  2.0015642840079934e-01  1.3747237678942750e-01  7.3823226125081173e-02  3.1280391700511910e-02  1.0158416241073859e-02  2.1961739636917727e-03  3.1575000259799894e-05  -2.7062576796347296e-04  -1.8765489640827748e-04  -1.0104459828929268e-04  -5.7494229974764623e-05  -4.2074227046583483e-05  -4.1204798051186130e-05  -4.6216385006566124e-05  -4.6588875068707696e-05  -2.3378540978146606e-05  5.2637285120543451e-05  2.1615062447832148e-04  4.8069178141675568e-04  8.2848571268070677e-04  1.1520869019291391e-03  1.3676937093154182e-03  1.2771023882999829e-03  1.1134328909211345e-03  3.0913246617629201e-04  1.6114170555274049e-03  -8.5976845459156646e-03  9.7949572892662096e-02  0.0000000000000000e+00  1.2884859737010351e-01  1.9833826379607353e-01  1.9724473408478285e-01  1.5152576910122084e-01  9.5361403181550480e-02  5.0525793803128209e-02  2.2844649166251448e-02  8.8322387066264389e-03  2.8605323846382486e-03  6.9876292174069052e-04  4.4239766658157614e-05  -1.0644833444449701e-04  -1.1700423491477655e-04  -9.6369669608882392e-05  -6.6134226997630071e-05  -1.8607514547126071e-05  6.6651337945986268e-05  2.1685436533466516e-04  4.5853951951575224e-04  8.0009698230817732e-04  1.2174711077402591e-03  1.6278574979437218e-03  1.9202018776546634e-03  1.9683430155899187e-03  1.7141332666174847e-03  1.2945532206571266e-03  5.2735088070309552e-04  1.1586319413135083e-03  -5.4452102352639522e-03  6.1149436148200578e-02  0.0000000000000000e+00  1.1024274127050547e-01  1.7682984015862441e-01  1.8883019923967953e-01  1.6090520628188146e-01  1.1653280331790207e-01  7.4210746881095677e-02  4.2601492178769011e-02  2.2560765585211775e-02  1.1306598341204267e-02  5.5345802196301742e-03  2.7601357286103660e-03  1.4859142820737600e-03  9.2879160165892070e-04  7.1915513528865308e-04  6.9789099231849967e-04  8.0499465958107125e-04  1.0228636806203643e-03  1.3455667754100351e-03  1.7568684135510729e-03  2.2156584916174431e-03  2.6422493906174318e-03  2.9343675479353449e-03  2.9764434622458744e-03  2.7191476379924908e-03  2.1592643789302901e-03  1.4964847376195654e-03  6.7879082787538204e-04  8.2485902927966273e-04  -3.1805173458612185e-03  3.5844676804645842e-02  0.0000000000000000e+00  9.1196475871988064e-02  1.5213513982542487e-01  1.7350419630860095e-01  1.6229399719481560e-01  1.3274048176116032e-01  9.8324301063201877e-02  6.7681699111394322e-02  4.4314567280415142e-02  2.8262056394669874e-02  1.8009186347180864e-02  1.1779322285176145e-02  8.1215263051917803e-03  6.0369059794518776e-03  4.9030947942482733e-03  4.3531391803505156e-03  4.1728772992266506e-03  4.2291643972157218e-03  4.4237288981939810e-03  4.6662814774314056e-03  4.8600104025698400e-03  4.9069441133999803e-03  4.7157454715611863e-03  4.2418355175872788e-03  3.4942810017544795e-03  2.5740605151925011e-03  1.6441911959602510e-03  7.9451521419699779e-04  5.7191643256852452e-04  -1.6272004816663317e-03  1.9348063781266557e-02  0.0000000000000000e+00  7.2088245743236315e-02  1.2452055268637445e-01  1.5056564681958978e-01  1.5270065453157600e-01  1.3834125661465968e-01  1.1577269402633626e-01  9.1595837649047412e-02  6.9835288300747173e-02  5.2214387347293119e-02  3.8920141038308806e-02  2.9363790090643709e-02  2.2714577227599963e-02  1.8185220828022611e-02  1.5139223820294164e-02  1.3100159642191175e-02  1.1721823313651888e-02  1.0750512272843765e-02  9.9944355822056529e-03  9.3030448844008164e-03  8.5602571724627107e-03  7.6826219825220868e-03  6.6332250375741586e-03  5.4219877574248881e-03  4.1212438316783877e-03  2.8396400984614634e-03  1.7175336242110520e-03  8.3422800202635566e-04  4.1524124834659595e-04  -6.9492669757752689e-04  9.3306634747620364e-03  0.0000000000000000e+00  5.3040521818691323e-02  9.4508512317244567e-02  1.2009262084143327e-01  1.3025417019005250e-01  1.2815968701049363e-01  1.1798235579774220e-01  1.0365256138360408e-01  8.8196276361287559e-02  7.3562479229772826e-02  6.0758480380532914e-02  5.0113522932033076e-02  4.1545976752061127e-02  3.4771936565813059e-02  2.9441520512208379e-02