<?xml version="1.0"?>
<VTKFile type="UnstructuredGrid"  version="0.1"  >
<UnstructuredGrid>
<Piece  NumberOfPoints="961" NumberOfCells="1800">
<Points>
<DataArray  type="Float64"  NumberOfComponents="3"  format="ascii">-1 -1 0  -0.9333333333333333 -1 0  -0.8666666666666667 -1 0  -0.8 -1 0  -0.7333333333333334 -1 0  -0.6666666666666667 -1 0  -0.6 -1 0  -0.5333333333333333 -1 0  -0.4666666666666667 -1 0  -0.4 -1 0  -0.3333333333333334 -1 0  -0.2666666666666667 -1 0  -0.2 -1 0  -0.1333333333333333 -1 0  -0.06666666666666665 -1 0  0 -1 0  0.06666666666666665 -1 0  0.1333333333333333 -1 0  0.2 -1 0  0.2666666666666666 -1 0  0.3333333333333333 -1 0  0.3999999999999999 -1 0  0.4666666666666666 -1 0  0.5333333333333334 -1 0  0.6000000000000001 -1 0  0.6666666666666667 -1 0  0.7333333333333334 -1 0  0.8 -1 0  0.8666666666666667 -1 0  0.9333333333333333 -1 0  1 -1 0  -1 -0.9333333333333333 0  -0.9333333333333333 -0.9333333333333333 0  -0.8666666666666667 -0.9333333333333333 0  -0.8 -0.9333333333333333 0  -0.7333333333333334 -0.9333333333333333 0  -0.6666666666666667 -0.9333333333333333 0  -0.6 -0.9333333333333333 0  -0.5333333333333333 -0.9333333333333333 0  -0.4666666666666667 -0.9333333333333333 0  -0.4 -0.9333333333333333 0  -0.3333333333333334 -0.9333333333333333 0  -0.2666666666666667 -0.9333333333333333 0  -0.2 -0.9333333333333333 0  -0.1333333333333333 -0.9333333333333333 0  -0.06666666666666665 -0.9333333333333333 0  0 -0.9333333333333333 0  0.06666666666666665 -0.9333333333333333 0  0.1333333333333333 -0.9333333333333333 0  0.2 -0.9333333333333333 0  0.2666666666666666 -0.9333333333333333 0  0.3333333333333333 -0.9333333333333333 0  0.3999999999999999 -0.9333333333333333 0  0.4666666666666666 -0.9333333333333333 0  0.5333333333333334 -0.9333333333333333 0  0.6000000000000001 -0.9333333333333333 0  0.6666666666666667 -0.9333333333333333 0  0.7333333333333334 -0.9333333333333333 0  0.8 -0.9333333333333333 0  0.8666666666666667 -0.9333333333333333 0  0.9333333333333333 -0.9333333333333333 0  1 -0.9333333333333333 0  -1 -0.8666666666666667 0  -0.9333333333333333 -0.8666666666666667 0  -0.8666666666666667 -0.8666666666666667 0  -0.8 -0.8666666666666667 0  -0.7333333333333334 -0.8666666666666667 0  -0.6666666666666667 -0.8666666666666667 0  -0.6 -0.8666666666666667 0  -0.5333333333333333 -0.8666666666666667 0  -0.4666666666666667 -0.8666666666666667 0  -0.4 -0.8666666666666667 0  -0.3333333333333334 -0.8666666666666667 0  -0.2666666666666667 -0.8666666666666667 0  -0.2 -0.8666666666666667 0  -0.1333333333333333 -0.8666666666666667 0  -0.06666666666666665 -0.8666666666666667 0  0 -0.8666666666666667 0  0.06666666666666665 -0.8666666666666667 0  0.1333333333333333 -0.8666666666666667 0  0.2 -0.8666666666666667 0  0.2666666666666666 -0.8666666666666667 0  0.3333333333333333 -0.8666666666666667 0  0.3999999999999999 -0.8666666666666667 0  0.4666666666666666 -0.8666666666666667 0  0.5333333333333334 -0.8666666666666667 0  0.6000000000000001 -0.8666666666666667 0  0.6666666666666667 -0.8666666666666667 0  0.7333333333333334 -0.8666666666666667 0  0.8 -0.8666666666666667 0  0.8666666666666667 -0.8666666666666667 0  0.9333333333333333 -0.8666666666666667 0  1 -0.8666666666666667 0  -1 -0.8 0  -0.9333333333333333 -0.8 0  -0.8666666666666667 -0.8 0  -0.8 -0.8 0  -0.7333333333333334 -0.8 0  -0.6666666666666667 -0.8 0  -0.6 -0.8 0  -0.5333333333333333 -0.8 0  -0.4666666666666667 -0.8 0  -0.4 -0.8 0  -0.3333333333333334 -0.8 0  -0.2666666666666667 -0.8 0  -0.2 -0.8 0  -0.1333333333333333 -0.8 0  -0.06666666666666665 -0.8 0  0 -0.8 0  0.06666666666666665 -0.8 0  0.1333333333333333 -0.8 0  0.2 -0.8 0  0.2666666666666666 -0.8 0  0.3333333333333333 -0.8 0  0.3999999999999999 -0.8 0  0.4666666666666666 -0.8 0  0.5333333333333334 -0.8 0  0.6000000000000001 -0.8 0  0.6666666666666667 -0.8 0  0.7333333333333334 -0.8 0  0.8 -0.8 0  0.8666666666666667 -0.8 0  0.9333333333333333 -0.8 0  1 -0.8 0  -1 -0.7333333333333334 0  -0.9333333333333333 -0.7333333333333334 0  -0.8666666666666667 -0.7333333333333334 0  -0.8 -0.7333333333333334 0  -0.7333333333333334 -0.7333333333333334 0  -0.6666666666666667 -0.7333333333333334 0  -0.6 -0.7333333333333334 0  -0.5333333333333333 -0.7333333333333334 0  -0.4666666666666667 -0.7333333333333334 0  -0.4 -0.7333333333333334 0  -0.3333333333333334 -0.7333333333333334 0  -0.2666666666666667 -0.7333333333333334 0  -0.2 -0.7333333333333334 0  -0.1333333333333333 -0.7333333333333334 0  -0.06666666666666665 -0.7333333333333334 0  0 -0.7333333333333334 0  0.06666666666666665 -0.7333333333333334 0  0.1333333333333333 -0.7333333333333334 0  0.2 -0.7333333333333334 0  0.2666666666666666 -0.7333333333333334 0  0.3333333333333333 -0.7333333333333334 0  0.3999999999999999 -0.7333333333333334 0  0.4666666666666666 -0.7333333333333334 0  0.5333333333333334 -0.7333333333333334 0  0.6000000000000001 -0.7333333333333334 0  0.6666666666666667 -0.7333333333333334 0  0.7333333333333334 -0.7333333333333334 0  0.8 -0.7333333333333334 0  0.8666666666666667 -0.7333333333333334 0  0.9333333333333333 -0.7333333333333334 0  1 -0.7333333333333334 0  -1 -0.6666666666666667 0  -0.9333333333333333 -0.6666666666666667 0  -0.8666666666666667 -0.6666666666666667 0  -0.8 -0.6666666666666667 0  -0.7333333333333334 -0.6666666666666667 0  -0.6666666666666667 -0.6666666666666667 0  -0.6 -0.6666666666666667 0  -0.5333333333333333 -0.6666666666666667 0  -0.4666666666666667 -0.6666666666666667 0  -0.4 -0.6666666666666667 0  -0.3333333333333334 -0.6666666666666667 0  -0.2666666666666667 -0.6666666666666667 0  -0.2 -0.6666666666666667 0  -0.1333333333333333 -0.6666666666666667 0  -0.06666666666666665 -0.6666666666666667 0  0 -0.6666666666666667 0  0.06666666666666665 -0.6666666666666667 0  0.1333333333333333 -0.6666666666666667 0  0.2 -0.6666666666666667 0  0.2666666666666666 -0.6666666666666667 0  0.3333333333333333 -0.6666666666666667 0  0.3999999999999999 -0.6666666666666667 0  0.4666666666666666 -0.6666666666666667 0  0.5333333333333334 -0.6666666666666667 0  0.6000000000000001 -0.6666666666666667 0  0.6666666666666667 -0.6666666666666667 0  0.7333333333333334 -0.6666666666666667 0  0.8 -0.6666666666666667 0  0.8666666666666667 -0.6666666666666667 0  0.9333333333333333 -0.6666666666666667 0  1 -0.6666666666666667 0  -1 -0.6 0  -0.9333333333333333 -0.6 0  -0.8666666666666667 -0.6 0  -0.8 -0.6 0  -0.7333333333333334 -0.6 0  -0.6666666666666667 -0.6 0  -0.6 -0.6 0  -0.5333333333333333 -0.6 0  -0.4666666666666667 -0.6 0  -0.4 -0.6 0  -0.3333333333333334 -0.6 0  -0.2666666666666667 -0.6 0  -0.2 -0.6 0  -0.1333333333333333 -0.6 0  -0.06666666666666665 -0.6 0  0 -0.6 0  0.06666666666666665 -0.6 0  0.1333333333333333 -0.6 0  0.2 -0.6 0  0.2666666666666666 -0.6 0  0.3333333333333333 -0.6 0  0.3999999999999999 -0.6 0  0.4666666666666666 -0.6 0  0.5333333333333334 -0.6 0  0.6000000000000001 -0.6 0  0.6666666666666667 -0.6 0  0.7333333333333334 -0.6 0  0.8 -0.6 0  0.8666666666666667 -0.6 0  0.9333333333333333 -0.6 0  1 -0.6 0  -1 -0.5333333333333333 0  -0.9333333333333333 -0.5333333333333333 0  -0.8666666666666667 -0.5333333333333333 0  -0.8 -0.5333333333333333 0  -0.7333333333333334 -0.5333333333333333 0  -0.6666666666666667 -0.5333333333333333 0  -0.6 -0.5333333333333333 0  -0.5333333333333333 -0.5333333333333333 0  -0.4666666666666667 -0.5333333333333333 0  -0.4 -0.5333333333333333 0  -0.3333333333333334 -0.5333333333333333 0  -0.2666666666666667 -0.5333333333333333 0  -0.2 -0.5333333333333333 0  -0.1333333333333333 -0.5333333333333333 0  -0.06666666666666665 -0.5333333333333333 0  0 -0.5333333333333333 0  0.06666666666666665 -0.5333333333333333 0  0.1333333333333333 -0.5333333333333333 0  0.2 -0.5333333333333333 0  0.2666666666666666 -0.5333333333333333 0  0.3333333333333333 -0.5333333333333333 0  0.3999999999999999 -0.5333333333333333 0  0.4666666666666666 -0.5333333333333333 0  0.5333333333333334 -0.5333333333333333 0  0.6000000000000001 -0.5333333333333333 0  0.6666666666666667 -0.5333333333333333 0  0.7333333333333334 -0.5333333333333333 0  0.8 -0.5333333333333333 0  0.8666666666666667 -0.5333333333333333 0  0.9333333333333333 -0.5333333333333333 0  1 -0.5333333333333333 0  -1 -0.4666666666666667 0  -0.9333333333333333 -0.4666666666666667 0  -0.8666666666666667 -0.4666666666666667 0  -0.8 -0.4666666666666667 0  -0.7333333333333334 -0.4666666666666667 0  -0.6666666666666667 -0.4666666666666667 0  -0.6 -0.4666666666666667 0  -0.5333333333333333 -0.4666666666666667 0  -0.4666666666666667 -0.4666666666666667 0  -0.4 -0.4666666666666667 0  -0.3333333333333334 -0.4666666666666667 0  -0.2666666666666667 -0.4666666666666667 0  -0.2 -0.4666666666666667 0  -0.1333333333333333 -0.4666666666666667 0  -0.06666666666666665 -0.4666666666666667 0  0 -0.4666666666666667 0  0.06666666666666665 -0.4666666666666667 0  0.1333333333333333 -0.4666666666666667 0  0.2 -0.4666666666666667 0  0.2666666666666666 -0.4666666666666667 0  0.3333333333333333 -0.4666666666666667 0  0.3999999999999999 -0.4666666666666667 0  0.4666666666666666 -0.4666666666666667 0  0.5333333333333334 -0.4666666666666667 0  0.6000000000000001 -0.4666666666666667 0  0.6666666666666667 -0.4666666666666667 0  0.7333333333333334 -0.4666666666666667 0  0.8 -0.4666666666666667 0  0.8666666666666667 -0.4666666666666667 0  0.9333333333333333 -0.4666666666666667 0  1 -0.4666666666666667 0  -1 -0.4 0  -0.9333333333333333 -0.4 0  -0.8666666666666667 -0.4 0  -0.8 -0.4 0  -0.7333333333333334 -0.4 0  -0.6666666666666667 -0.4 0  -0.6 -0.4 0  -0.5333333333333333 -0.4 0  -0.4666666666666667 -0.4 0  -0.4 -0.4 0  -0.3333333333333334 -0.4 0  -0.2666666666666667 -0.4 0  -0.2 -0.4 0  -0.1333333333333333 -0.4 0  -0.06666666666666665 -0.4 0  0 -0.4 0  0.06666666666666665 -0.4 0  0.1333333333333333 -0.4 0  0.2 -0.4 0  0.2666666666666666 -0.4 0  0.3333333333333333 -0.4 0  0.3999999999999999 -0.4 0  0.4666666666666666 -0.4 0  0.5333333333333334 -0.4 0  0.6000000000000001 -0.4 0  0.6666666666666667 -0.4 0  0.7333333333333334 -0.4 0 
[...]
<PointData  Scalars="f_24"> 
<DataArray  type="Float64"  Name="f_24"  format="ascii">0.0000000000000000e+00  0.0000000000000000e+00  0.0000000000000000e+00  0.0000000000000000e+00  0.0000000000000000e+00  0.0000000000000000e+00  0.0000000000000000e+00  0.0000000000000000e+00  0.0000000000000000e+00  0.0000000000000000e+00  0.0000000000000000e+00  0.0000000000000000e+00  0.0000000000000000e+00  0.0000000000000000e+00  0.0000000000000000e+00  0.0000000000000000e+00  0.0000000000000000e+00  0.0000000000000000e+00  0.0000000000000000e+00  0.0000000000000000e+00  0.0000000000000000e+00  0.0000000000000000e+00  0.0000000000000000e+00  0.0000000000000000e+00  0.0000000000000000e+00  0.0000000000000000e+00  0.0000000000000000e+00  0.0000000000000000e+00  0.0000000000000000e+00  0.0000000000000000e+00  1.0100538328110824e+01  0.0000000000000000e+00  4.9261163836811860e-02  9.5756137902430316e-02  1.3954573209998539e-01  1.8105500448430528e-01  2.2072193256509523e-01  2.5899864385295401e-01  2.9636599327728319e-01  3.3334609190672115e-01  3.7051594564590934e-01  4.0852186680822705e-01  4.4809691069996216e-01  4.9008424631684677e-01  5.3546973222416216e-01  5.8542769106412385e-01  6.4138510444242613e-01  7.0511146821801174e-01  7.7884489885243569e-01  8.6547027279659638e-01  9.6877330472540057e-01  1.0938072883930923e+00  1.2474300025122165e+00  1.4391033213715483e+00  1.6821100337743435e+00  1.9954594639806367e+00  2.4069906546644346e+00  2.9586936840153708e+00  3.7166004880171162e+00  4.7905725311738516e+00  6.3825766270772837e+00  8.8196529003019162e+00  0.0000000000000000e+00  9.5111816363145002e-02  1.7911563498021077e-01  2.4873982068630898e-01  3.0312003016968098e-01  3.4278853434839224e-01  3.6921124517329895e-01  3.8435501409735051e-01  3.9035015825782443e-01  3.8925824492275141e-01  3.8293396447462136e-01  3.7296380186879396e-01  3.6065952443466293e-01  3.4708749181994286e-01  3.3312032763766281e-01  3.1950384175417412e-01  3.0693900912722460e-01  2.9618637090830724e-01  2.8820992056596140e-01  2.8439217966439695e-01  2.8687655060743633e-01  2.9913575094148198e-01  3.2694181679265044e-01  3.8005470721308166e-01  4.7521693084263533e-01  6.4159219323123873e-01  9.3103504041257501e-01  1.4385546710047203e+00  2.3485793771070398e+00  4.0518749822845441e+00  7.6646376377818362e+00  0.0000000000000000e+00  1.3557876039123387e-01  2.4372807198735127e-01  3.1520291161149189e-01  3.4983143475602330e-01  3.5315645959343456e-01  3.3335237634329018e-01  2.9882444701860023e-01  2.5679694985036561e-01  2.1274076894197660e-01  1.7036231921965952e-01  1.3188325303365489e-01  9.8413630982559369e-02  7.0306531561945579e-02  4.7445169279685340e-02  2.9453044849141810e-02  1.5837506145373638e-02  6.0851626519663055e-03  -2.6876359967872848e-04  -3.5695854314101178e-03  -3.9284157898661345e-03  -9.8415104144929143e-04  6.6224340749636628e-03  2.2413698719114625e-02  5.4633390094467618e-02  1.2182092978779549e-01  2.6494166533260161e-01  5.7466352472565141e-01  1.2547919505249863e+00  2.8048369577033481e+00  6.6269631970735121e+00  0.0000000000000000e+00  1.6960585619638519e-01  2.8821569329739366e-01  3.4148774594915882e-01  3.3710371585378895e-01  2.9403885279226205e-01  2.3270856413972180e-01  1.6916794666722840e-01  1.1331682448386994e-01  6.9599561641743315e-02  3.8684114688540563e-02  1.9136373355289948e-02  8.6689263437662988e-03  4.9054668910339305e-03  5.7613128020340305e-03  9.5746904611197989e-03  1.5099675195912278e-02  2.1434495627916120e-02  2.7927286409992664e-02  3.4080594379207053e-02  3.9467062291949587e-02  4.3675858198899832e-02  4.6351553895972439e-02  4.7526557407811067e-02  4.8843866386902163e-02  5.7319878822081623e-02  9.6001409291852260e-02  2.3229865820904957e-01  6.5611171694813397e-01  1.8968410592101241e+00  5.6983995099095957e+00  0.0000000000000000e+00  1.9684485452020706e-01  3.1457565783016900e-01  3.3798765664773106e-01  2.9160569421126953e-01  2.1350434217987635e-01  1.3508973479946954e-01  7.3558696365714646e-02  3.3537587239485932e-02  1.2190419644053915e-02  3.9315352089179132e-03  3.3283113122714878e-03  6.3175315901873924e-03  1.0372510964250976e-02  1.4204676232165231e-02  1.7359267489914187e-02  1.9866321603269111e-02  2.1989270823162915e-02  2.4058759982128596e-02  2.6362252814722566e-02  2.9059991152330118e-02  3.2102880636063154e-02  3.5135717114701967e-02  3.7401487535200652e-02  3.7859949151356480e-02  3.6561179200068974e-02  4.1133689693624097e-02  9.1257918066121588e-02  3.3668524084036811e-01  1.3020512408549707e+00  4.8710157832324583e+00  0.0000000000000000e+00  2.1749693295654010e-01  3.2651760982406891e-01  3.1662160553330382e-01  2.3592035580673854e-01  1.4117720971769157e-01  6.7369058244546226e-02  2.4060595404864819e-02  5.4778646575898383e-03  1.4022325032638707e-03  3.4014210740584212e-03  6.5847082146634518e-03  8.9919257828781803e-03  1.0368575126619020e-02  1.1172512721117115e-02  1.2003645991556186e-02  1.3364928174061251e-02  1.5609532193197910e-02  1.8961378301365482e-02  2.3540417049622786e-02  2.9355889843118609e-02  3.6250807307824304e-02  4.3790746101418282e-02  5.1084018906237372e-02  5.6487345985468042e-02  5.7414521846343415e-02  5.2527225057897593e-02  5.7242499583121373e-02  1.7671972118570253e-01  8.7700814899627022e-01  4.1371804991941943e+00  0.0000000000000000e+00  2.3213400477890861e-01  3.2814193306182388e-01  2.8727423093054882e-01  1.8371713073827861e-01  8.7644558225743199e-02  2.9039093276299152e-02  4.9414855283133347e-03  3.6581471413326289e-04  2.5570969860345938e-03  5.0628502802655580e-03  6.1711622359084560e-03  6.2728663007923496e-03  6.1434264932786736e-03  6.2947154206299599e-03  6.9317513508523427e-03  8.1073337973897597e-03  9.8737695283835514e-03  1.2372151625759935e-02  1.5855346787549147e-02  2.0645250417133377e-02  2.7014290715416316e-02  3.4985163372007612e-02  4.4062823697384561e-02  5.2913787217942522e-02  5.8788518187144159e-02  5.7017947211097098e-02  4.7990188574854778e-02  9.1855663969413817e-02  5.8444765808024057e-01  3.4895614151566177e+00  0.0000000000000000e+00  2.4152728045617314e-01  3.2313788060696319e-01  2.5670111678881680e-01  1.4092415524693300e-01  5.2422040957638839e-02  1.0468106261378307e-02  -1.2314442270535070e-04  1.1241190127602393e-03  3.4625049051922666e-03  4.1431531093132157e-03  3.7784171369384723e-03  3.3016932929156961e-03  3.0989105562044175e-03  3.1749003706921138e-03  3.4656005639490625e-03  4.0035562667744638e-03  4.9579427581396811e-03  6.6307522399387617e-03  9.4522714982862247e-03  1.3965501744929552e-02  2.0745034940032492e-02  3.0171868384397473e-02  4.2039070277271447e-02  5.5067848817643136e-02  6.6468455283682296e-02  7.0824198724048326e-02  6.0559194170368882e-02  6.1593309170821418e-02  3.8442980599865695e-01  2.9211255636912719e+00  0.0000000000000000e+00  2.4651024927620685e-01  3.1443502617962132e-01  2.2882636057713046e-01  1.0867077780076959e-01  3.1024808234881827e-02  2.6588311485956813e-03  -4.7636594987338060e-04  1.9361485347114146e-03  2.9317574633540748e-03  2.5244279575544807e-03  1.9157134069023717e-03  1.5630501925719862e-03  1.4005442786534912e-03  1.3178886634320917e-03  1.3186891727785723e-03  1.4875472922162413e-03  1.9525491098745095e-03  2.9098994100976361e-03  4.7010079339877405e-03  7.9010318148309468e-03  1.3341542551410708e-02  2.1938911550723653e-02  3.4167345037013533e-02  4.9247192443501821e-02  6.4369585977274685e-02  7.4191195891856493e-02  6.8425077888234737e-02  4.9338856725127486e-02  2.4457409242303879e-01  2.4251392525794082e+00  0.0000000000000000e+00  2.4788366716478377e-01  3.0415177256816861e-01  2.0552763768841303e-01  8.5829060492810513e-02  1.8775574407699093e-02  -1.4363040885158730e-04  6.9224944108830583e-05  1.9694638657623198e-03  1.9786282459285150e-03  1.3346552599152405e-03  9.0453362109400241e-04  6.8645393215965389e-04  5.2802936310429442e-04  4.0651534744784565e-04  3.5824585829729233e-04  4.0884279575661091e-04  5.9357994285868740e-04  1.0274058187882623e-03  2.0012741912758376e-03  4.1066250452849954e-03  8.3500645204903409e-03  1.6098936035522857e-02  2.8596035360576092e-02  4.5764636206226866e-02  6.4929683654389794e-02  8.0079255747358649e-02  8.0781621413415605e-02  5.4242499516855815e-02  1.5645696115312779e-01  1.9951680648120156e+00  0.0000000000000000e+00  2.4636253173978992e-01  2.9369325265557128e-01  1.8741340992796293e-01  7.0596142218185234e-02  1.2144162179333952e-02  -9.3574735004765168e-04  4.3550273512084586e-04  1.6061274620510556e-03  1.2019812336100627e-03  6.7120802707270396e-04  4.1934379816714856e-04  2.7340257609229573e-04  1.5358575010058091e-04  8.1447342121478223e-05  5.8763225263830951e-05  6.6313591556343718e-05  1.0864050618010322e-04  2.5020155393608540e-04  6.7924164062171141e-04  1.8569381941082315e-03  4.7481276935948443e-03  1.0975612073049286e-02  2.2469657113719229e-02  4.0215623436932982e-02  6.1938150723898244e-02  8.1307377776099324e-02  8.7051405749041022e-02  6.1273700949713211e-02  9.5547771145062854e-02  1.6250768585897908e+00  0.0000000000000000e+00  2.4254902742148210e-01  2.8390152508958311e-01  1.7440617306426534e-01  6.1276924083609630e-02  8.8661499463822176e-03  -1.0492261789621709e-03  5.1515262948183271e-04  1.1906451554566269e-03  7.1179211107453330e-04  3.4166964992816696e-04  1.9588831307209726e-04  9.8706659894567036e-05  3.0419939219276145e-05  4.8045062688322528e-06  1.5548959130788379e-07  -2.6421708675616809e-06  -1.7858296699542100e-06  2.5729453525105695e-05  1.7265476718109844e-04  7.6231038935274653e-04  2.6609478393742818e-03  7.6112063933315996e-03  1.8145957067412288e-02  3.6214649198746486e-02  6.0560185230833473e-02  8.3859040115109584e-02  9.4952462963099893e-02  7.2095848515011024e-02  6.2733193839445964e-02  1.3090297673231628e+00  0.0000000000000000e+00  2.3693226682853075e-01  2.7520120860353547e-01  1.6611865664495651e-01  5.6574703383595715e-02  7.6611678829613334e-03  -9.8088895301088556e-04  4.1493799474835182e-04  8.5915589143263139e-04  4.3809526433717921e-04  1.8360762361127546e-04  9.5322368899952028e-05  3.4731812976095742e-05  1.7493174453599515e-06  -3.4213146839970651e-06  -2.5543118675491283e-06  -4.1158460699779959e-06  -7.6898904342797586e-06  -1.3600003516659412e-05  9.7510116418326263e-06  2.6298374587548442e-04  1.4530044579403110e-03  5.3085589888572753e-03  1.4715199286942456e-02  3.2598349142851181e-02  5.8470061258945383e-02  8.5215129481731169e-02  9.9345652626507408e-02  8.1496932176493911e-02  4.1557175622318546e-02  1.0414901996322767e+00  0.0000000000000000e+00  2.2988962935396373e-01  2.6771993383864645e-01  1.6205989529142503e-01  5.5637917952943226e-02  7.9231730254130505e-03  -8.5169187577180568e-04  2.2544518813929256e-04  6.2476956593243585e-04  2.9625967689807085e-04  1.0763887700038859e-04  5.0574075636312623e-05  1.4713455063868233e-05  -1.5906106973483125e-06  -1.8648218363345536e-06  -4.3599426336374542e-07  -2.4604658059711825e-07  -1.1010969407827172e-06  -9.2144683988992453e-06  -2.4018301909525350e-05  6.5848729590565382e-05  8.3514207733303199e-04  3.9478025151607355e-03  1.2605689162393715e-02  3.0373860226411468e-02  5.7879036993628133e-02  8.7477619796706471e-02  1.0498231483676251e-01  9.0490693239574191e-02  3.4449562310332180e-02  8.1722083934700118e-01  0.0000000000000000e+00  2.2170725221686619e-01  2.6137788136359152e-01  1.6173318029638398e-01  5.8006476275837958e-02  9.5031768516449164e-03  -6.0540744777984746e-04  -8.7225968853088932e-06  4.5387322905634066e-04  2.2914048526189972e-04  7.2425614089823099e-05  2.9906077255078102e-05  9.4090370837886808e-06  -2.3265523467928955e-07  -8.1854936221381885e-07  -9.3188655605037336e-08  3.5674245059011218e-07  1.4842473975134593e-06  -2.4834762619336681e-06  -2.6100911144360306e-05  -1.0217647111600510e-05  5.2890393603885813e-04  3.2346877726367610e-03  1.1461285538774783e-02  2.9402107829331246e-02  5.8025395314744488e-02  9.0216595529930083e-02  1.0916282835959716e-01  9.7860578929734807e-02  3.1540943423079365e-02  6.3128364550692651e-01  0.0000000000000000e+00  2.1258584021715879e-01  2.5594617433370814e-01  1.6465422289810858e-01  6.3525198754768281e-02  1.2588424362916994e-02  -5.5600302178959931e-05  -2.5859445678247432e-04  2.9860329728982751e-04  2.0114433010979944e-04  6.2019508027028638e-05  1.9796626333097123e-05  7.5241053786827106e-06  1.5696710622964406e-06  3.2029702593969063e-08  -2.3588632454474251e-07  -9.8448491770652046e-08  2.2118264041875918e-06  9.1255000255944807e-07  -2.5989425496643936e-05  -4.1819020225139435e-05  4.2449857119710116e-04  3.0453073069271587e-03  1.1400717002026878e-02  2.9904044045789478e-02  5.9968964986540058e-02  9.3926488122375432e-02  1.1434789300065595e-01  1.0391132980840108e-01  3.4584974477358095e-02  4.7903985236136476e-01  0.0000000000000000e+00  2.0266376840877065e-01  2.5109051945300920e-01  1.7033445932165353e-01  7.2251312361903422e-02  1.7654043878824015e-02  1.1576276723884859e-03  -4.5140559387445996e-04  1.0892814558913619e-04  1.7904972217633753e-04  7.1290007934066507e-05  1.8559189672081812e-05  5.5804908597785573e-06  1.9208882238258434e-06  3.0815330582926917e-07  -5.0173144111423395e-07  1.1265952691699186e-08  3.7005596089117770e-06  1.0316205390380071e-06  -3.5134252141823824e-05  -5.4608757663351603e-05  4.7782993808775411e-04  3.4044737263140639e-03  1.2441782903639294e-02  3.2174522405031013e-02  6.3554219085114425e-02  9.8889850118231717e-02  1.1912564463069560e-01  1.0870903757990469e-01  3.8280630097216960e-02  3.5614996936934973e-01  0.0000000000000000e+00  1.9202372293210976e-01  2.4638637055698903e-01  1.7822595458176330e-01  8.4338933303488753e-02  2.5440177461033605e-02  3.6676020883985487e-03  -3.6497463130928421e-04  -1.3797681988990691e-04  1.1200888927914245e-04  8.7184278209742323e-05  3.1629087772649932e-05  8.2522127016575159e-06  1.8040753006862347e-06  -2.0469013504328681e-08  5.8383302416242238e-08  2.5386609325165225e-06  6.0387284069105725e-06  -7.4137973685817632e-06  -5.9648603175942538e-05  -3.7620690401624727e-05  7.8129262875452777e-04  4.4851153091721545e-03  1.4978116489821629e-02  3.6495375521638229e-02  6.9430320838263088e-02  1.0506609228558755e-01  1.2449111634474139e-01  1.1216819113314558e-01  4.3498924174854167e-02  2.5857378119963714e-01  0.0000000000000000e+00  1.8070339760392015e-01  2.4134487050232759e-01  1.8766146725510044e-01  9.9911108720348182e-02  3.6917066175570536e-02  8.5209612876859259e-03  5.6469861658797966e-04  -3.2734723245415041e-04  -5.7345580381013892e-05  5.9218733254775733e-05  4.8988351981709891e-05  2.3698298564802726e-05  1.0445342483002606e-05  5.9361652467037611e-06  6.1736650392636125e-06  7.2819209303610376e-06  -6.7686419035837429e-07  -3.9803224101867446e-05  -9.1324461121223259e-05  1.1430886901494856e-04  1.5997039127156856e-03  6.7908490456014391e-03  1.9548655735073295e-02  4.3495911377520520e-02  7.7669040673792933e-02  1.1268246538290919e-01  1.2960651758293218e-01  1.1450769249571566e-01  4.7732909387531337e-02  1.8257034773070449e-01  0.0000000000000000e+00  1.6871735980821820e-01  2.3540659899044553e-01  1.9777776105867795e-01  1.1886202038766673e-01  5.3155910023821966e-02  1.7283052276522021e-02  3.5355715760694404e-03  7.5952281336085959e-05  -2.4926808442502836e-04  -8.7923372707668837e-05  1.4437441591636720e-06  2.0028883283810797e-05  1.7090692916408602e-05  1.1652308192276205e-05  5.0592985908957943e-06  -1.0560950342409451e-05  -4.6854500478445405e-05  -9.5027000821294825e-05  -1.1876442098547506e-05  7.4648535145352944e-04  3.6018325044221804e-03  1.1211251080164504e-02  2.7137638221090613e-02  5.3747512983413119e-02  8.8622929432221401e-02  1.2138744881064377e-01  1.3455162162192544e-01  1.1545185593166510e-01  5.1301879596205163e-02  1.2469800405075097e-01  0.0000000000000000e+00  1.5603059540713685e-01  2.2796884315920155e-01  2.0744602647371693e-01  1.4063923735269621e-01  7.5059902638402953e-02  3.2012262437625887e-02  1.0717124368280456e-02  2.5670430756169187e-03  2.3120209567261204e-04  -1.8069844680629273e-04  -1.5311425087808592e-04  -9.1264504320010150e-05  -5.9544246461830502e-05  -5.3038855614294106e-05  -6.4603823942169990e-05  -8.8211667400798932e-05  -9.3173321452021885e-05  4.6154222620741447e-05  7.1415457719826493e-04  2.8244222989611024e-03  8.1345870630305118e-03  1.9272648382999472e-02  3.8953056140284187e-02  6.7945361325354614e-02  1.0212009092649474e-01  1.3085327076957315e-01  1.3855120439922805e-01  1.1499114127331668e-01  5.3217081767365275e-02  8.1814360457697730e-02  0.0000000000000000e+00  1.4262997625378979e-01  2.1838251006943296e-01  2.1522975484688367e-01  1.6394540470296282e-01  1.0284496834290149e-01  5.4846060327074876e-02  2.5338236473390716e-02  1.0257187775884295e-02  3.6493970975196035e-03  1.1202658936751181e-03  2.6549575405849607e-04  1.1830921144893489e-05  -4.8075132143239042e-05  -4.4162839205681077e-05  4.2744476971791930e-06  1.4669241940825929e-04  5.3277588716624171e-04  1.5059332444405881e-03  3.7608842232452694e-03  8.5149151955355717e-03  1.7586305075402132e-02  3.3057412310075814e-02  5.6333225141095775e-02  8.6320359648073969e-02  1.1766740211658393e-01  1.4011412074115989e-01  1.4103405238928401e-01  1.1274731638846798e-01  5.3583469508369494e-02  5.1076302459187609e-02  0.0000000000000000e+00  1.2841575302348104e-01  2.0597833965989834e-01  2.1934995933053139e-01  1.8648927186077419e-01  1.3532422553068171e-01  8.7033994778309226e-02  5.1050130379696294e-02  2.8062350568538463e-02  1.4907154567081750e-02  7.9497679004218568e-03  4.4680705780364358e-03  2.8074793348764155e-03  2.0950123998096917e-03  1.9344365414126561e-03  2.2128730108362075e-03  3.0203838823344951e-03  4.6520023333487502e-03  7.6622096232094369e-03  1.2931307727603220e-02  2.1673358036208595e-02  3.5267293702581033e-02  5.4758929413850882e-02  7.9962583743835677e-02  1.0827548358436578e-01  1.3384002541439219e-01  1.4785154359903341e-01  1.4100269958467249e-01  1.0846485169007895e-01  5.2136517368563104e-02  2.9939990772585270e-02  0.0000000000000000e+00  1.1338262750219717e-01  1.9011321036011869e-01  2.1778580094783231e-01  2.0481272563921615e-01  1.6905782967478275e-01  1.2723650575852571e-01  8.9859524919582712e-02  6.1127757571078960e-02  4.1128328721540645e-02  2.8145513810764005e-02  2.0163679978656063e-02  1.5542823270235267e-02  1.3179434058161665e-02  1.2449165485024359e-02  1.3104553653663815e-02  1.5197609711797023e-02  1.9036291705618200e-02  2.5154571970960292e-02  3.4256928795405706e-02  4.7080711122237051e-02  6.4124198626340959e-02  8.5179860160406490e-02  1.0876503445185444e-01  1.3152600116416696e-01  1.4818491135369929e-01  1.5211337531530453e-01  1.3743729690887502e-01  1.0173604512358939e-01  4.8964428532453128e-02  1.6160861324977304e-02  0.0000000000000000e+00  9.7354165373635226e-02  1.7014635673282169e-01  2.0832649897660105e-01  2.1435714392079167e-01  1.9778462692152698e-01  1.6961571453246554e-01  1.3869336947357191e-01  1.1047393362597935e-01  8.7411536116335259e-02  6.9973664947846875e-02  5.7626132497679415e-02  4.9519288349411557e-02  4.4863851887500472e-02  4.3087721505956189e-02  4.3869509601321521e-02  4.7113833230554895e-02  5.2897474592521400e-02  6.1391355574032407e-02  7.2745777843940429e-02  8.6927026549226183e-02  1.0349047377320544e-01  1.2131838758517667e-01  1.3837035419365462e-01  1.5156816874693094e-01  1.5701491713407734e-01  1.5057013798253235e-01  1.2919965613665393e-01  9.2232599479606381e-02  4.4104266672226236e-02  7.7936252531719255e-03  0.0000000000000000e+00  8.0371983340636513e-02  1.4564380841444607e-01  1.8899401615305395e-01  2.1002772015368198e-01  2.1266920335101908e-01  2.0268934872550021e-01  1.8578524365629570e-01  1.6650435620533269e-01  1.4792362213705915e-01  1.3180365785392989e-01  1.1894280466647009e-01  1.0954372634454335e-01  1.0350165782456465e-01  1.0059239240494894e-01  1.0057159684312214e-01  1.0320816425226978e-01  1.0827033342958045e-01  1.1547804500046860e-01  1.2443006971577623e-01  1.3451187038949719e-0