<?xml version="1.0"?>
<VTKFile type="UnstructuredGrid"  version="0.1"  >
<UnstructuredGrid>
<Piece  NumberOfPoints="961" NumberOfCells="1800">
<Points>
<DataArray  type="Float64"  NumberOfComponents="3"  format="ascii">-1 -1 0  -0.9333333333333333 -1 0  -0.8666666666666667 -1 0  -0.8 -1 0  -0.7333333333333334 -1 0  -0.6666666666666667 -1 0  -0.6 -1 0  -0.5333333333333333 -1 0  -0.4666666666666667 -1 0  -0.4 -1 0  -0.3333333333333334 -1 0  -0.2666666666666667 -1 0  -0.2 -1 0  -0.1333333333333333 -1 0  -0.06666666666666665 -1 0  0 -1 0  0.06666666666666665 -1 0  0.1333333333333333 -1 0  0.2 -1 0  0.2666666666666666 -1 0  0.3333333333333333 -1 0  0.3999999999999999 -1 0  0.4666666666666666 -1 0  0.5333333333333334 -1 0  0.6000000000000001 -1 0  0.6666666666666667 -1 0  0.7333333333333334 -1 0  0.8 -1 0  0.8666666666666667 -1 0  0.9333333333333333 -1 0  1 -1 0  -1 -0.9333333333333333 0  -0.9333333333333333 -0.9333333333333333 0  -0.8666666666666667 -0.9333333333333333 0  -0.8 -0.9333333333333333 0  -0.7333333333333334 -0.9333333333333333 0  -0.6666666666666667 -0.9333333333333333 0  -0.6 -0.9333333333333333 0  -0.5333333333333333 -0.9333333333333333 0  -0.4666666666666667 -0.9333333333333333 0  -0.4 -0.9333333333333333 0  -0.3333333333333334 -0.9333333333333333 0  -0.2666666666666667 -0.9333333333333333 0  -0.2 -0.9333333333333333 0  -0.1333333333333333 -0.9333333333333333 0  -0.06666666666666665 -0.9333333333333333 0  0 -0.9333333333333333 0  0.06666666666666665 -0.9333333333333333 0  0.1333333333333333 -0.9333333333333333 0  0.2 -0.9333333333333333 0  0.2666666666666666 -0.9333333333333333 0  0.3333333333333333 -0.9333333333333333 0  0.3999999999999999 -0.9333333333333333 0  0.4666666666666666 -0.9333333333333333 0  0.5333333333333334 -0.9333333333333333 0  0.6000000000000001 -0.9333333333333333 0  0.6666666666666667 -0.9333333333333333 0  0.7333333333333334 -0.9333333333333333 0  0.8 -0.9333333333333333 0  0.8666666666666667 -0.9333333333333333 0  0.9333333333333333 -0.9333333333333333 0  1 -0.9333333333333333 0  -1 -0.8666666666666667 0  -0.9333333333333333 -0.8666666666666667 0  -0.8666666666666667 -0.8666666666666667 0  -0.8 -0.8666666666666667 0  -0.7333333333333334 -0.8666666666666667 0  -0.6666666666666667 -0.8666666666666667 0  -0.6 -0.8666666666666667 0  -0.5333333333333333 -0.8666666666666667 0  -0.4666666666666667 -0.8666666666666667 0  -0.4 -0.8666666666666667 0  -0.3333333333333334 -0.8666666666666667 0  -0.2666666666666667 -0.8666666666666667 0  -0.2 -0.8666666666666667 0  -0.1333333333333333 -0.8666666666666667 0  -0.06666666666666665 -0.8666666666666667 0  0 -0.8666666666666667 0  0.06666666666666665 -0.8666666666666667 0  0.1333333333333333 -0.8666666666666667 0  0.2 -0.8666666666666667 0  0.2666666666666666 -0.8666666666666667 0  0.3333333333333333 -0.8666666666666667 0  0.3999999999999999 -0.8666666666666667 0  0.4666666666666666 -0.8666666666666667 0  0.5333333333333334 -0.8666666666666667 0  0.6000000000000001 -0.8666666666666667 0  0.6666666666666667 -0.8666666666666667 0  0.7333333333333334 -0.8666666666666667 0  0.8 -0.8666666666666667 0  0.8666666666666667 -0.8666666666666667 0  0.9333333333333333 -0.8666666666666667 0  1 -0.8666666666666667 0  -1 -0.8 0  -0.9333333333333333 -0.8 0  -0.8666666666666667 -0.8 0  -0.8 -0.8 0  -0.7333333333333334 -0.8 0  -0.6666666666666667 -0.8 0  -0.6 -0.8 0  -0.5333333333333333 -0.8 0  -0.4666666666666667 -0.8 0  -0.4 -0.8 0  -0.3333333333333334 -0.8 0  -0.2666666666666667 -0.8 0  -0.2 -0.8 0  -0.1333333333333333 -0.8 0  -0.06666666666666665 -0.8 0  0 -0.8 0  0.06666666666666665 -0.8 0  0.1333333333333333 -0.8 0  0.2 -0.8 0  0.2666666666666666 -0.8 0  0.3333333333333333 -0.8 0  0.3999999999999999 -0.8 0  0.4666666666666666 -0.8 0  0.5333333333333334 -0.8 0  0.6000000000000001 -0.8 0  0.6666666666666667 -0.8 0  0.7333333333333334 -0.8 0  0.8 -0.8 0  0.8666666666666667 -0.8 0  0.9333333333333333 -0.8 0  1 -0.8 0  -1 -0.7333333333333334 0  -0.9333333333333333 -0.7333333333333334 0  -0.8666666666666667 -0.7333333333333334 0  -0.8 -0.7333333333333334 0  -0.7333333333333334 -0.7333333333333334 0  -0.6666666666666667 -0.7333333333333334 0  -0.6 -0.7333333333333334 0  -0.5333333333333333 -0.7333333333333334 0  -0.4666666666666667 -0.7333333333333334 0  -0.4 -0.7333333333333334 0  -0.3333333333333334 -0.7333333333333334 0  -0.2666666666666667 -0.7333333333333334 0  -0.2 -0.7333333333333334 0  -0.1333333333333333 -0.7333333333333334 0  -0.06666666666666665 -0.7333333333333334 0  0 -0.7333333333333334 0  0.06666666666666665 -0.7333333333333334 0  0.1333333333333333 -0.7333333333333334 0  0.2 -0.7333333333333334 0  0.2666666666666666 -0.7333333333333334 0  0.3333333333333333 -0.7333333333333334 0  0.3999999999999999 -0.7333333333333334 0  0.4666666666666666 -0.7333333333333334 0  0.5333333333333334 -0.7333333333333334 0  0.6000000000000001 -0.7333333333333334 0  0.6666666666666667 -0.7333333333333334 0  0.7333333333333334 -0.7333333333333334 0  0.8 -0.7333333333333334 0  0.8666666666666667 -0.7333333333333334 0  0.9333333333333333 -0.7333333333333334 0  1 -0.7333333333333334 0  -1 -0.6666666666666667 0  -0.9333333333333333 -0.6666666666666667 0  -0.8666666666666667 -0.6666666666666667 0  -0.8 -0.6666666666666667 0  -0.7333333333333334 -0.6666666666666667 0  -0.6666666666666667 -0.6666666666666667 0  -0.6 -0.6666666666666667 0  -0.5333333333333333 -0.6666666666666667 0  -0.4666666666666667 -0.6666666666666667 0  -0.4 -0.6666666666666667 0  -0.3333333333333334 -0.6666666666666667 0  -0.2666666666666667 -0.6666666666666667 0  -0.2 -0.6666666666666667 0  -0.1333333333333333 -0.6666666666666667 0  -0.06666666666666665 -0.6666666666666667 0  0 -0.6666666666666667 0  0.06666666666666665 -0.6666666666666667 0  0.1333333333333333 -0.6666666666666667 0  0.2 -0.6666666666666667 0  0.2666666666666666 -0.6666666666666667 0  0.3333333333333333 -0.6666666666666667 0  0.3999999999999999 -0.6666666666666667 0  0.4666666666666666 -0.6666666666666667 0  0.5333333333333334 -0.6666666666666667 0  0.6000000000000001 -0.6666666666666667 0  0.6666666666666667 -0.6666666666666667 0  0.7333333333333334 -0.6666666666666667 0  0.8 -0.6666666666666667 0  0.8666666666666667 -0.6666666666666667 0  0.9333333333333333 -0.6666666666666667 0  1 -0.6666666666666667 0  -1 -0.6 0  -0.9333333333333333 -0.6 0  -0.8666666666666667 -0.6 0  -0.8 -0.6 0  -0.7333333333333334 -0.6 0  -0.6666666666666667 -0.6 0  -0.6 -0.6 0  -0.5333333333333333 -0.6 0  -0.4666666666666667 -0.6 0  -0.4 -0.6 0  -0.3333333333333334 -0.6 0  -0.2666666666666667 -0.6 0  -0.2 -0.6 0  -0.1333333333333333 -0.6 0  -0.06666666666666665 -0.6 0  0 -0.6 0  0.06666666666666665 -0.6 0  0.1333333333333333 -0.6 0  0.2 -0.6 0  0.2666666666666666 -0.6 0  0.3333333333333333 -0.6 0  0.3999999999999999 -0.6 0  0.4666666666666666 -0.6 0  0.5333333333333334 -0.6 0  0.6000000000000001 -0.6 0  0.6666666666666667 -0.6 0  0.7333333333333334 -0.6 0  0.8 -0.6 0  0.8666666666666667 -0.6 0  0.9333333333333333 -0.6 0  1 -0.6 0  -1 -0.5333333333333333 0  -0.9333333333333333 -0.5333333333333333 0  -0.8666666666666667 -0.5333333333333333 0  -0.8 -0.5333333333333333 0  -0.7333333333333334 -0.5333333333333333 0  -0.6666666666666667 -0.5333333333333333 0  -0.6 -0.5333333333333333 0  -0.5333333333333333 -0.5333333333333333 0  -0.4666666666666667 -0.5333333333333333 0  -0.4 -0.5333333333333333 0  -0.3333333333333334 -0.5333333333333333 0  -0.2666666666666667 -0.5333333333333333 0  -0.2 -0.5333333333333333 0  -0.1333333333333333 -0.5333333333333333 0  -0.06666666666666665 -0.5333333333333333 0  0 -0.5333333333333333 0  0.06666666666666665 -0.5333333333333333 0  0.1333333333333333 -0.5333333333333333 0  0.2 -0.5333333333333333 0  0.2666666666666666 -0.5333333333333333 0  0.3333333333333333 -0.5333333333333333 0  0.3999999999999999 -0.5333333333333333 0  0.4666666666666666 -0.5333333333333333 0  0.5333333333333334 -0.5333333333333333 0  0.6000000000000001 -0.5333333333333333 0  0.6666666666666667 -0.5333333333333333 0  0.7333333333333334 -0.5333333333333333 0  0.8 -0.5333333333333333 0  0.8666666666666667 -0.5333333333333333 0  0.9333333333333333 -0.5333333333333333 0  1 -0.5333333333333333 0  -1 -0.4666666666666667 0  -0.9333333333333333 -0.4666666666666667 0  -0.8666666666666667 -0.4666666666666667 0  -0.8 -0.4666666666666667 0  -0.7333333333333334 -0.4666666666666667 0  -0.6666666666666667 -0.4666666666666667 0  -0.6 -0.4666666666666667 0  -0.5333333333333333 -0.4666666666666667 0  -0.4666666666666667 -0.4666666666666667 0  -0.4 -0.4666666666666667 0  -0.3333333333333334 -0.4666666666666667 0  -0.2666666666666667 -0.4666666666666667 0  -0.2 -0.4666666666666667 0  -0.1333333333333333 -0.4666666666666667 0  -0.06666666666666665 -0.4666666666666667 0  0 -0.4666666666666667 0  0.06666666666666665 -0.4666666666666667 0  0.1333333333333333 -0.4666666666666667 0  0.2 -0.4666666666666667 0  0.2666666666666666 -0.4666666666666667 0  0.3333333333333333 -0.4666666666666667 0  0.3999999999999999 -0.4666666666666667 0  0.4666666666666666 -0.4666666666666667 0  0.5333333333333334 -0.4666666666666667 0  0.6000000000000001 -0.4666666666666667 0  0.6666666666666667 -0.4666666666666667 0  0.7333333333333334 -0.4666666666666667 0  0.8 -0.4666666666666667 0  0.8666666666666667 -0.4666666666666667 0  0.9333333333333333 -0.4666666666666667 0  1 -0.4666666666666667 0  -1 -0.4 0  -0.9333333333333333 -0.4 0  -0.8666666666666667 -0.4 0  -0.8 -0.4 0  -0.7333333333333334 -0.4 0  -0.6666666666666667 -0.4 0  -0.6 -0.4 0  -0.5333333333333333 -0.4 0  -0.4666666666666667 -0.4 0  -0.4 -0.4 0  -0.3333333333333334 -0.4 0  -0.2666666666666667 -0.4 0  -0.2 -0.4 0  -0.1333333333333333 -0.4 0  -0.06666666666666665 -0.4 0  0 -0.4 0  0.06666666666666665 -0.4 0  0.1333333333333333 -0.4 0  0.2 -0.4 0  0.2666666666666666 -0.4 0  0.3333333333333333 -0.4 0  0.3999999999999999 -0.4 0  0.4666666666666666 -0.4 0  0.5333333333333334 -0.4 0  0.6000000000000001 -0.4 0  0.6666666666666667 -0.4 0  0.7333333333333334 -0.4 0 
[...]
<PointData  Scalars="f_24"> 
<DataArray  type="Float64"  Name="f_24"  format="ascii">0.0000000000000000e+00  0.0000000000000000e+00  0.0000000000000000e+00  0.0000000000000000e+00  0.0000000000000000e+00  0.0000000000000000e+00  0.0000000000000000e+00  0.0000000000000000e+00  0.0000000000000000e+00  0.0000000000000000e+00  0.0000000000000000e+00  0.0000000000000000e+00  0.0000000000000000e+00  0.0000000000000000e+00  0.0000000000000000e+00  0.0000000000000000e+00  0.0000000000000000e+00  0.0000000000000000e+00  0.0000000000000000e+00  0.0000000000000000e+00  0.0000000000000000e+00  0.0000000000000000e+00  0.0000000000000000e+00  0.0000000000000000e+00  0.0000000000000000e+00  0.0000000000000000e+00  0.0000000000000000e+00  0.0000000000000000e+00  0.0000000000000000e+00  0.0000000000000000e+00  1.5920199667082917e+01  0.0000000000000000e+00  5.1009603574018589e-16  -6.9235557591537921e-15  -8.6859966507735480e-14  -5.0414154956770533e-13  -2.0813262095587511e-12  -7.0109400636116270e-12  -2.0625439543722013e-11  -5.5178246855521170e-11  -1.3786283182669926e-10  -3.2784067842978776e-10  -7.5267256286910281e-10  -1.6872662235021407e-09  -3.7279764817472220e-09  -8.1850626219812448e-09  -1.7991020038867260e-08  -3.9868935957460851e-08  -8.9696989414363090e-08  -2.0633355544914293e-07  -4.8894007504852746e-07  -1.2031881283542934e-06  -3.1021476523274007e-06  -8.4650902499059129e-06  -2.4746092862724339e-05  -7.8736841081128287e-05  -2.7909049053381340e-04  -1.1452279801229064e-03  -5.8488647393968784e-03  -4.3889928923214382e-02  -9.4277571636615332e-01  1.3901302149054411e+01  0.0000000000000000e+00  -2.9637228316618461e-17  -1.1870284451610515e-14  -1.0004809112854811e-13  -4.7574557928379627e-13  -1.6584630084974329e-12  -4.7178778612661350e-12  -1.1589770143106920e-11  -2.5397561408668629e-11  -5.0528855229297946e-11  -9.1729425718063082e-11  -1.5022570227986937e-10  -2.1172178837379298e-10  -2.1313309658648596e-10  4.5336728402202349e-11  1.1281302621455012e-09  4.5528410638403729e-09  1.4316916630063823e-08  4.0894386216439192e-08  1.1178939212564576e-07  2.9942420227104066e-07  7.9323666435842622e-07  2.0709414582177186e-06  5.1889862206646314e-06  1.1317015757233382e-05  1.0988151331360563e-05  -1.2624144217890008e-04  -1.8186463953987662e-03  -2.5192450592742638e-02  -9.0294568852990453e-01  1.2080797835272245e+01  0.0000000000000000e+00  -3.7141974616007654e-16  -1.0440107954471505e-14  -6.8100742884235868e-14  -2.6348392006703728e-13  -7.3717082462559409e-13  -1.6130944453368944e-12  -2.8067586467237493e-12  -3.6111980272684797e-12  -1.8862320200544710e-12  7.4726235960883875e-12  3.5405711366416069e-11  1.0414886720998748e-10  2.5798722959899940e-10  5.8579624632013849e-10  1.2728423146103597e-09  2.7343636336212618e-09  6.0044273096552277e-09  1.3998391363235443e-08  3.5991310223168744e-08  1.0462837413109939e-07  3.4384443977590134e-07  1.2487869362981190e-06  4.8545348825184197e-06  1.9574473956992599e-05  7.9222859216330580e-05  3.0225378473212433e-04  7.6515937527485921e-04  -8.6092344595543897e-03  -8.8537889246499923e-01  1.0445243001573102e+01  0.0000000000000000e+00  -4.4210586935749617e-16  -7.0066440830453216e-15  -3.6191258999335409e-14  -1.1068533798674567e-13  -2.2953335288974229e-13  -3.1402479546001391e-13  -1.4633638275314355e-13  6.6579939501773134e-13  2.6413562828754612e-12  6.1864018124490963e-12  1.0931974155873084e-11  1.4124175807969222e-11  6.7962756897904762e-12  -3.5544721778521809e-11  -1.7666919903606480e-10  -5.8380748738143576e-10  -1.7113505275082869e-09  -4.8512909654061554e-09  -1.3813222649870205e-08  -3.9807377488119350e-08  -1.1219334908819234e-07  -2.6932480896356303e-07  -1.9653093058736696e-07  4.1816526500537537e-06  4.5629241132554543e-05  3.4646355529090590e-04  2.2074386717106410e-03  7.3753019079735487e-03  -8.3832377371544486e-01  8.9816656334134368e+00  0.0000000000000000e+00  -3.6936066130657708e-16  -4.0504327958286283e-15  -1.6614484467941890e-14  -3.8522674693370215e-14  -5.0305689651694758e-14  -5.6544331019888731e-15  1.5064023591972002e-13  4.3198714935725353e-13  7.3200117159954096e-13  7.3867012443668363e-13  -1.2003469710827395e-13  -2.6176276407615149e-12  -7.3733534997546455e-12  -1.3765259424923852e-11  -1.7112542288955834e-11  -2.1485894262026228e-12  6.8592003314074525e-11  2.5061728459117768e-10  3.7965862106175054e-10  -2.0793195320251052e-09  -2.7463188047995920e-08  -2.0644572133898646e-07  -1.1968280576078227e-06  -4.9584676188940281e-06  -5.0473871795071698e-06  1.7238255959319180e-04  2.4550800522643228e-03  2.0989225859059782e-02  -7.7849957398155190e-01  7.6775654258694637e+00  0.0000000000000000e+00  -2.6067801408476130e-16  -2.1354333282302449e-15  -6.9309300078861423e-15  -1.1404310980902117e-14  -4.7859747326184967e-15  2.4229606847968874e-14  7.1208104362643240e-14  1.0269420394525890e-13  6.2237936600472175e-14  -9.2636439273733410e-14  -3.1926688864390802e-13  -3.8804907594537239e-13  2.4810925909445796e-13  2.6487745382599213e-12  8.8971054385951544e-12  2.4298804265734244e-11  6.8405758517476249e-11  2.3241999478284432e-10  9.8785201335188051e-10  4.8485312913616276e-09  2.3558950418907129e-08  8.3116111474075732e-08  -5.0584288215225299e-08  -3.6192084107573447e-06  -2.7858203310438851e-05  -4.1083539227001957e-05  1.8396780605293339e-03  3.1426291671329487e-02  -7.0927327834427900e-01  6.5209137836371642e+00  0.0000000000000000e+00  -1.6649362188102550e-16  -1.0607250034584410e-15  -2.7052383570750202e-15  -2.7814599016331330e-15  2.4137866818521258e-15  1.2611189043329116e-14  1.9472850438664391e-14  1.0938299809629853e-14  -1.6019438859076724e-14  -4.3421307125550821e-14  -3.4680285703997341e-14  3.5979178512035646e-14  1.1471620298127527e-13  -7.0629540604479555e-14  -1.3535282223722917e-12  -6.3012785505038192e-12  -2.4144192364140257e-11  -9.3462355349402928e-11  -3.9042799464502591e-10  -1.5998540286460327e-09  -2.6075076129382631e-09  4.7170363912880598e-08  4.9671479761084336e-07  1.0775217418017529e-06  -1.9706445468190727e-05  -1.8282454823575399e-04  6.9664100649267100e-04  3.8633372742571587e-02  -6.3561349587982829e-01  5.5001538210322831e+00  0.0000000000000000e+00  -9.9612500927455408e-17  -5.0673678043098530e-16  -1.0060922537038993e-15  -4.5374219210221734e-16  1.9392804443409009e-15  4.4625105693928728e-15  3.5969934432631707e-15  -1.7726880588116297e-15  -7.1575230556531767e-15  -5.2389292161568111e-15  5.7361661006749646e-15  1.4921247018914137e-14  4.6064323015115859e-15  -1.5434617854993947e-14  9.3401946225859487e-14  9.2192572554074776e-13  4.7510109238643603e-12  2.0759982252444327e-11  8.4672170105448379e-11  3.9387156216669388e-11  -5.9178143125366807e-09  -5.0705573596966094e-08  7.1502157428543853e-08  2.9828480782021192e-06  3.1205884143786258e-06  -2.1067811712780052e-04  -6.4173568657912585e-04  4.2753738892292129e-02  -5.6075545770564850e-01  4.6042003619903422e+00  0.0000000000000000e+00  -5.6951687392937041e-17  -2.3620626300465728e-16  -3.6064052992972722e-16  3.8083658747523866e-17  9.3350758265835229e-16  1.3013910074991654e-15  2.8143639764238969e-16  -1.2744054610953022e-15  -1.3718085542507992e-15  5.7042543795066254e-16  2.2035073167532823e-15  5.4185740162721314e-16  -3.3427282119242606e-15  -3.3925599022314438e-15  -3.7104540920884479e-15  -8.4339974368341133e-14  -6.2864315628152025e-13  -3.1887930350379465e-12  -9.2596989475484269e-12  4.3574100533783325e-10  5.7128210318494377e-09  -1.2968085873185256e-08  -3.6113582803479545e-07  1.0143675354407045e-06  2.1572406466920465e-05  -1.2990429519304071e-04  -1.9324705221948173e-03  4.4197203925835288e-02  -4.8733681058674810e-01  3.8224399400666078e+00  0.0000000000000000e+00  -3.1838088870495233e-17  -1.0806747085025336e-16  -1.2576543294006931e-16  8.3092804368120022e-17  3.7923991787675424e-16  3.2752143413947052e-16  -1.1767818903006239e-16  -4.0453827415817120e-16  -8.3324821660345991e-17  3.7390891198015279e-16  2.4279048956688135e-16  -3.7797642786653587e-16  -4.4860743362617317e-16  1.1561197220737264e-15  9.4468688586643210e-16  1.1022769670103388e-14  8.1648433289407730e-14  6.9739457512504719e-13  -3.9845985660459344e-12  -6.0805782809709077e-10  -4.6572765256610366e-10  4.9857853801804397e-08  -1.6788415840823583e-07  -2.2748687598481352e-06  2.3971809963585634e-05  2.4648892402815648e-05  -3.0053941750229130e-03  4.3439761416516495e-02  -4.1726499657683996e-01  3.1447307984361332e+00  0.0000000000000000e+00  -1.7412728684980406e-17  -4.7744760853261278e-17  -4.6147096780617662e-17  5.8541317156094518e-17  1.3418131706011302e-16  8.1765344134381494e-17  -9.0657345495292902e-17  -7.8651036571145291e-17  3.5711305441434253e-17  5.3240966294035031e-17  1.2990376896882596e-16  -6.2805998771577140e-16  1.5579596900992839e-15  -4.1547032705133383e-15  8.6914741674979320e-15  -2.3107586722299142e-14  -4.6128137732209695e-14  -8.1222783414376134e-13  1.5056935513409250e-11  5.8025538121501170e-10  -6.4841791934847686e-09  5.4098569998250323e-09  3.7666886807995379e-07  -3.5654334100003567e-06  7.7202764050050351e-06  2.1024370575983405e-04  -3.7713935855720406e-03  4.0996614194848534e-02  -3.5190722824795306e-01  2.5614028898937193e+00  0.0000000000000000e+00  -7.5918764518656646e-18  -2.3159084707822689e-17  -1.9134848742335540e-17  4.7283995975842612e-17  -6.2079135661290837e-18  1.5092398238965248e-16  -3.4504031442440061e-16  6.8325155774374749e-16  -1.5198772443040613e-15  3.3890262507701669e-15  -7.4106814098170763e-15  1.6106804402666989e-14  -3.4636772563181872e-14  7.2316872784050276e-14  -1.3847085117511389e-13  2.2166226427495529e-13  -9.3068180383683315e-14  1.2881696599130649e-12  -4.5853796482526585e-11  -3.8546100181932659e-11  7.0048398891526528e-09  -8.3734428300950109e-08  5.2447134760832736e-07  -9.8889018289326139e-07  -2.2357431091266769e-05  3.8711132160277960e-04  -4.2017486407096927e-03  3.7362111059168202e-02  -2.9217140709167938e-01  2.0632578768539460e+00  0.0000000000000000e+00  -2.1248446826951878e-18  -1.9068387468286089e-17  9.6043328682202880e-18  1.3127883992597923e-17  -8.2109317286517665e-17  4.5923163415795160e-16  -1.5520735294484203e-15  4.5916358791345894e-15  -1.2866647724264493e-14  3.4937902199689182e-14  -9.3351604616474933e-14  2.4804095949283852e-13  -6.5989566918604492e-13  1.7652532995878244e-12  -4.7564148473311776e-12  1.2865238600311624e-11  -3.4544095881381910e-11  8.5055585633193723e-11  -9.1912415258902983e-11  -9.5610234705400986e-10  8.2019115989641759e-09  -2.0262742030274117e-08  -2.8767858680072984e-07  5.2840973292132421e-06  -5.7943124781058334e-05  5.2641272479866138e-04  -4.3145359758239611e-03  3.2985769577839850e-02  -2.3859169173115485e-01  1.6415691313511509e+00  0.0000000000000000e+00  -4.6825050799726757e-18  -1.1171806272483403e-17  3.9397904544311507e-17  -1.0038382577594277e-16  1.1741183663027554e-16  4.0544180915491910e-16  -3.1594812403105394e-15  1.3730561218322535e-14  -4.9266838709797071e-14  1.6059892532531718e-13  -4.9586711814069922e-13  1.4841292487825923e-12  -4.3709563122925538e-12  1.2807463159657791e-11  -3.7674661800352050e-11  1.1217251179009159e-10  -3.4063608212546254e-10  1.0662789954708392e-09  -3.5451627400753979e-09  1.3357179210469287e-08  -6.0885211293988344e-08  3.3418717332759658e-07  -2.0655649349348938e-06  1.3509812332471684e-05  -9.0476718447744187e-05  6.1205071270090887e-04  -4.1577600493453090e-03  2.8255242164045173e-02  -1.9139930421303986e-01  1.2880817350394396e+00  0.0000000000000000e+00  -8.6629486607697144e-18  1.4610610656496578e-17  6.8757543161447940e-18  -1.6639217044687586e-16  6.0841926984070095e-16  -1.0532865160485725e-15  -1.2447014980049491e-15  1.9248244163219374e-14  -1.0198158695550868e-13  4.1631646086415488e-13  -1.4976701426702640e-12  5.0062796414014351e-12  -1.6000112390162777e-11  4.9813591636981952e-11  -1.5324339844065546e-10  4.7174137006958840e-10  -1.4723078208201786e-09  4.7310360136434792e-09  -1.5934173860944032e-08  5.7246850899304133e-08  -2.2232233497701517e-07  9.3911495856634220e-07  -4.3108147228933827e-06  2.1375325027800736e-05  -1.1352923557551339e-04  6.4001115011908959e-04  -3.7957547841113034e-03  2.3488792704585194e-02  -1.5058232486770221e-01  9.9501247919268232e-01  0.0000000000000000e+00  -1.4664096444353753e-18  2.5287630724712051e-17  -8.1479112375043589e-17  4.3717622287401655e-17  6.1624307744457608e-16  -2.9896840997710731e-15  6.8988192188231612e-15  1.0525854464194979e-15  -9.8336932924987750e-14  6.1059331558979597e-13  -2.7226718943339389e-12  1.0407501185784116e-11  -3.6347710312017418e-11  1.1990944546154151e-10  -3.8183691231761396e-10  1.1932648242634076e-09  -3.7123375211297775e-09  1.1652702879729911e-08  -3.7387696867225061e-08  1.2419992854331686e-07  -4.3252174114280306e-07  1.5971915197699519e-06  -6.3137173373707945e-06  2.6892850705077860e-05  -1.2380378747484753e-04  6.1574617891109679e-04  -3.2981109312285048e-03  1.8934080444075095e-02  -1.1593747793667578e-01  7.5504986470451529e-01  0.0000000000000000e+00  9.8741493083225097e-18  -8.7297130645237581e-18  -7.8182087545370659e-17  3.4133767082651996e-16  -4.4258287763511699e-16  -1.8262586001502895e-15  1.2575234306685146e-14  -3.6683278702757878e-14  2.6668529702520762e-14  3.6261106263978910e-13  -2.7111609979202136e-12  1.3022843089863904e-11  -5.1874279110061601e-11  1.8550845630442185e-10  -6.1943380212784310e-10  1.9797601102322910e-09  -6.1692349897342843e-09  1.9036654470244435e-08  -5.9003833090273575e-08  1.8625150196957996e-07  -6.0699343501107345e-07  2.0698709525289919e-06  -7.4790649513331107e-06  2.8953205912644918e-05  -1.2113572771035667e-04  5.5092216753153663e-04  -2.7314019637679808e-03  1.4770883462226537e-02  -8.7114435117965280e-02  5.6135410208833980e-01  0.0000000000000000e+00  5.9376128531979588e-18  -3.9341012616093724e-17  6.2820433652622886e-17  1.8440473484531116e-16  -1.2532756190818132e-15  2.6578091493469362e-15  2.9870835662050254e-15  -4.2546113745391531e-14  1.6194253961951839e-13  -2.8514692666514890e-13  -5.9224368923163457e-13  7.6849759383337899e-12  -4.1880647013972192e-11  1.7654484802516555e-10  -6.5033610800296720e-10  2.2057876559723583e-09  -7.1035699480149242e-09  2.2202707639570259e-08  -6.8568605808085770e-08  2.1260681020799415e-07  -6.7192358806514762e-07  2.1964244649935020e-06  -7.5325137218838200e-06  2.7468616771991077e-05  -1.0781727032218028e-04  4.6021457550628615e-04  -2.1535899224364771e-03  1.1116684040378006e-02  -6.3654033329066023e-02  4.0755711147732276e-01  0.0000000000000000e+00  -8.4064743774376779e-18  -9.6013404083626148e-18  1.2828531600195096e-16  -3.2600456614682088e-16  -1.6995445632996527e-16  3.8175119901140918e-15  -1.2364687556760397e-14  8.7819799538036411e-15  9.8172442776427664e-14  -5.5740356866177669e-13  1.6406011196767581e-12  -2.0583541226534457e-12  -8.6608672597396354e-12  7.8890309027600499e-11  -3.9122200675173161e-10  1.5664409322792296e-09  -5.5967318546566208e-09  1.8697926094106534e-08  -6.0143927586803011e-08  1.9040001856768367e-07  -6.0436981745775934e-07  1.9565587308753921e-06  -6.5657100639088370e-06  2.3198778897569520e-05  -8.7606476134703253e-05  3.5854890909486822e-04  -1.6106576614262295e-03  8.0339480569799875e-03  -4.5021322076275662e-02  2.8776252262439639e-01  0.0000000000000000e+00  -9.9720392611055379e-18  3.7764009647597180e-17  -1.3602464302580430e-17  -3.5341156431013219e-16  1.3623089041638702e-15  -1.3867237076337836e-15  -8.0492129753198452e-15  4.3956567742011083e-14  -9.5787517750218522e-14  -4.2643295959988882e-14  1.2112585182304397e-12  -5.4652840063893521e-12  1.5001969179447847e-11  -2.1023863519095542e-11  -4.8165912226226769e-11  5.2096804910404884e-10  -2.6373722657257596e-09  1.0663624023338373e-08  -3.8633403060381629e-08  1.3205008900034220e-07  -4.3968034151399716e-07  1.4610953002651022e-06  -4.9473059445246975e-06  1.7397649583324433e-05  -6.4704912398415605e-05  2.5901488125172769e-04  -1.1351047259631844e-03  5.5383813439538214e-03  -3.0634181789147303e-02  1.9654567490225833e-01  0.0000000000000000e+00  2.5591656898389286e-18  2.7832971021223122e-17  -1.4379187937394862e-16  2.2622130179395358e-16  6.2404749001841232e-16  -4.4125962922779879e-15  1.0341300294669666e-14  1.7806831163241573e-15  -1.0201897117481191e-13  3.9704069282271780e-13  -7.3357657172538313e-13  -4.6174243192056590e-13  8.9760458915469439e-12  -3.8349728524305717e-11  1.0349153205257002e-10  -1.5511116735436663e-10  -2.2772759661524405e-10  3.0103610949676448e-09  -1.5813198764758216e-08  6.5891111372305441e-08  -2.4777764663736720e-07  8.8974364726495039e-07  -3.1605546550964663e-06  1.1411703841697068e-05  -4.2885219499685369e-05  1.7150260840747625e-04  -7.4590778780610147e-04  3.6076484636732532e-03  -1.9888190820803509e-02  1.2895361730337171e-01  0.0000000000000000e+00  9.3685130099922350e-18  -1.9975623569712387e-17  -5.2747449482935872e-17  4.5581938358675686e-16  -1.2550942662585616e-15  4.9650321821314001e-16  9.2911434000777011e-15  -3.9004785549574163e-14  6.8964630059223603e-14  6.1356807769247870e-14  -8.2593193363921891e-13  2.8975972339057291e-12  -5.4580684518414425e-12  1.6207725384676768e-15  4.3964999650928877e-11  -1.9576336879321865e-10  5.2457296576141298e-10  -7.3171916481042306e-10  -1.6024334269326131e-09  1.7996559788659206e-08  -9.5090693696678550e-08  4.1049042672328718e-07  -1.6328060001197728e-06  6.3334461109508444e-06  -2.4876855803807330e-05  1.0203465788180037e-04  -4.4959696936877429e-04  2.1901811734490501e-03  -1.2178278086780514e-02  8.0505108439965029e-02  0.0000000000000000e+00  3.5534855482141899e-18  -3.3707823944779150e-17  1.0448318667134041e-16  -3.8339900811209825e-17  -9.7764229114362687e-16  4.3751908708806747e-15  -8.6550305764185159e-15  -2.8407122792223326e-15  7.9347326909883780e-14  -2.7967153172532102e-13  4.7193103579865284e-13  2.4573604795157911e-13  -4.3903931135900326e-12  1.5518378229809333e-11  -3.0340678499665996e-11  1.0551607823186630e-11  1.8035247743332371e-10  -8.4174273245741959e-10  2.1872310203858939e-09  -2.2531069587138334e-09  -1.3391585590580033e-08  1.1544937989778994e-07  -6.0992650538441022e-07  2.7771102223914665e-06  -1.2054582750271832e-05  5.2718458641395295e-05  -2.4215691592569639e-04  1.2138372557112436e-03  -6.9176244390906482e-03  4.7190616544032164e-02  0.0000000000000000e+00  -3.6552442771099846e-18  -4.9908385058526755e-18  9.4361273764526453e-17  -4.0537703765925591e-16  8.2162460288082091e-16  3.7061998163410273e-16  -8.7009242025856346e-15  3.1544395144928328e-14  -5.5900237516581590e-14  -1.5812894196662447e-14  4.4706883375613270e-13  -1.5522221469392900e-12  2.7975155316612287e-12  -3.0603150888061107e-13  -1.6677102940511092e-11  6.3295088023840960e-11  -1.2624041517853366e-10  4.7205437331940400e-11  7.3276654409078360e-10  -3.3683362707150713e-09  7.9795374068952774e-09  -9.9978925938082546e-10  -1.1089769716131922e-07  8.1229835990608831e-07  -4.4334697041463777e-06  2.2222540024661404e-05  -1.1151029333694043e-04  5.9424966824866141e-04  -3.5542032236596127e-03  2.5472319467332645e-02  0.0000000000000000e+00  -4.3398387946419065e-18  1.8374404157847130e-17  -2.5810930859094609e-17  -1.3073138524489489e-16  9.7874436158562246e-16  -3.2915580521419630e-15  5.8407063305766471e-15  1.8127619763699811e-15  -4.9520245110281120e-14  1.7572412899307154e-13  -3.2820924685002332e-13  9.2783476017160188e-14  1.6465335387981150e-12  -6.3014581323107331e-12  1.2235100254262584e-11  -5.4694648527979509e-12  -5.3470597664765909e-11  2.1971231561183314e-10  -4.3617215339014501e-10  7.3840089086597235e-11  3.0589354793250019e-09  -1.3013494866627224e-08  2.4446513575452384e-08  6.3501645276948359e-08  -9.4742577659281976e-07  6.6772104878001037e-06  -4.0392202113167865e-05  2.4276846455823485e-04  -1.5852893160959159e-03  1.2284104681391128e-02  0.0000000000000000e+00  -1.4375583859245187e-18  1.4182956204238432e-17  -6.8960979964551450e-17  2.0297412036815438e-16  -2.6537792557848261e-16  -7.5889070341492222e-16  5.85