<?xml version="1.0"?>
<VTKFile type="UnstructuredGrid"  version="0.1"  >
<UnstructuredGrid>
<Piece  NumberOfPoints="961" NumberOfCells="1800">
<Points>
<DataArray  type="Float64"  NumberOfComponents="3"  format="ascii">-1 -1 0  -0.9333333333333333 -1 0  -0.8666666666666667 -1 0  -0.8 -1 0  -0.7333333333333334 -1 0  -0.6666666666666667 -1 0  -0.6 -1 0  -0.5333333333333333 -1 0  -0.4666666666666667 -1 0  -0.4 -1 0  -0.3333333333333334 -1 0  -0.2666666666666667 -1 0  -0.2 -1 0  -0.1333333333333333 -1 0  -0.06666666666666665 -1 0  0 -1 0  0.06666666666666665 -1 0  0.1333333333333333 -1 0  0.2 -1 0  0.2666666666666666 -1 0  0.3333333333333333 -1 0  0.3999999999999999 -1 0  0.4666666666666666 -1 0  0.5333333333333334 -1 0  0.6000000000000001 -1 0  0.6666666666666667 -1 0  0.7333333333333334 -1 0  0.8 -1 0  0.8666666666666667 -1 0  0.9333333333333333 -1 0  1 -1 0  -1 -0.9333333333333333 0  -0.9333333333333333 -0.9333333333333333 0  -0.8666666666666667 -0.9333333333333333 0  -0.8 -0.9333333333333333 0  -0.7333333333333334 -0.9333333333333333 0  -0.6666666666666667 -0.9333333333333333 0  -0.6 -0.9333333333333333 0  -0.5333333333333333 -0.9333333333333333 0  -0.4666666666666667 -0.9333333333333333 0  -0.4 -0.9333333333333333 0  -0.3333333333333334 -0.9333333333333333 0  -0.2666666666666667 -0.9333333333333333 0  -0.2 -0.9333333333333333 0  -0.1333333333333333 -0.9333333333333333 0  -0.06666666666666665 -0.9333333333333333 0  0 -0.9333333333333333 0  0.06666666666666665 -0.9333333333333333 0  0.1333333333333333 -0.9333333333333333 0  0.2 -0.9333333333333333 0  0.2666666666666666 -0.9333333333333333 0  0.3333333333333333 -0.9333333333333333 0  0.3999999999999999 -0.9333333333333333 0  0.4666666666666666 -0.9333333333333333 0  0.5333333333333334 -0.9333333333333333 0  0.6000000000000001 -0.9333333333333333 0  0.6666666666666667 -0.9333333333333333 0  0.7333333333333334 -0.9333333333333333 0  0.8 -0.9333333333333333 0  0.8666666666666667 -0.9333333333333333 0  0.9333333333333333 -0.9333333333333333 0  1 -0.9333333333333333 0  -1 -0.8666666666666667 0  -0.9333333333333333 -0.8666666666666667 0  -0.8666666666666667 -0.8666666666666667 0  -0.8 -0.8666666666666667 0  -0.7333333333333334 -0.8666666666666667 0  -0.6666666666666667 -0.8666666666666667 0  -0.6 -0.8666666666666667 0  -0.5333333333333333 -0.8666666666666667 0  -0.4666666666666667 -0.8666666666666667 0  -0.4 -0.8666666666666667 0  -0.3333333333333334 -0.8666666666666667 0  -0.2666666666666667 -0.8666666666666667 0  -0.2 -0.8666666666666667 0  -0.1333333333333333 -0.8666666666666667 0  -0.06666666666666665 -0.8666666666666667 0  0 -0.8666666666666667 0  0.06666666666666665 -0.8666666666666667 0  0.1333333333333333 -0.8666666666666667 0  0.2 -0.8666666666666667 0  0.2666666666666666 -0.8666666666666667 0  0.3333333333333333 -0.8666666666666667 0  0.3999999999999999 -0.8666666666666667 0  0.4666666666666666 -0.8666666666666667 0  0.5333333333333334 -0.8666666666666667 0  0.6000000000000001 -0.8666666666666667 0  0.6666666666666667 -0.8666666666666667 0  0.7333333333333334 -0.8666666666666667 0  0.8 -0.8666666666666667 0  0.8666666666666667 -0.8666666666666667 0  0.9333333333333333 -0.8666666666666667 0  1 -0.8666666666666667 0  -1 -0.8 0  -0.9333333333333333 -0.8 0  -0.8666666666666667 -0.8 0  -0.8 -0.8 0  -0.7333333333333334 -0.8 0  -0.6666666666666667 -0.8 0  -0.6 -0.8 0  -0.5333333333333333 -0.8 0  -0.4666666666666667 -0.8 0  -0.4 -0.8 0  -0.3333333333333334 -0.8 0  -0.2666666666666667 -0.8 0  -0.2 -0.8 0  -0.1333333333333333 -0.8 0  -0.06666666666666665 -0.8 0  0 -0.8 0  0.06666666666666665 -0.8 0  0.1333333333333333 -0.8 0  0.2 -0.8 0  0.2666666666666666 -0.8 0  0.3333333333333333 -0.8 0  0.3999999999999999 -0.8 0  0.4666666666666666 -0.8 0  0.5333333333333334 -0.8 0  0.6000000000000001 -0.8 0  0.6666666666666667 -0.8 0  0.7333333333333334 -0.8 0  0.8 -0.8 0  0.8666666666666667 -0.8 0  0.9333333333333333 -0.8 0  1 -0.8 0  -1 -0.7333333333333334 0  -0.9333333333333333 -0.7333333333333334 0  -0.8666666666666667 -0.7333333333333334 0  -0.8 -0.7333333333333334 0  -0.7333333333333334 -0.7333333333333334 0  -0.6666666666666667 -0.7333333333333334 0  -0.6 -0.7333333333333334 0  -0.5333333333333333 -0.7333333333333334 0  -0.4666666666666667 -0.7333333333333334 0  -0.4 -0.7333333333333334 0  -0.3333333333333334 -0.7333333333333334 0  -0.2666666666666667 -0.7333333333333334 0  -0.2 -0.7333333333333334 0  -0.1333333333333333 -0.7333333333333334 0  -0.06666666666666665 -0.7333333333333334 0  0 -0.7333333333333334 0  0.06666666666666665 -0.7333333333333334 0  0.1333333333333333 -0.7333333333333334 0  0.2 -0.7333333333333334 0  0.2666666666666666 -0.7333333333333334 0  0.3333333333333333 -0.7333333333333334 0  0.3999999999999999 -0.7333333333333334 0  0.4666666666666666 -0.7333333333333334 0  0.5333333333333334 -0.7333333333333334 0  0.6000000000000001 -0.7333333333333334 0  0.6666666666666667 -0.7333333333333334 0  0.7333333333333334 -0.7333333333333334 0  0.8 -0.7333333333333334 0  0.8666666666666667 -0.7333333333333334 0  0.9333333333333333 -0.7333333333333334 0  1 -0.7333333333333334 0  -1 -0.6666666666666667 0  -0.9333333333333333 -0.6666666666666667 0  -0.8666666666666667 -0.6666666666666667 0  -0.8 -0.6666666666666667 0  -0.7333333333333334 -0.6666666666666667 0  -0.6666666666666667 -0.6666666666666667 0  -0.6 -0.6666666666666667 0  -0.5333333333333333 -0.6666666666666667 0  -0.4666666666666667 -0.6666666666666667 0  -0.4 -0.6666666666666667 0  -0.3333333333333334 -0.6666666666666667 0  -0.2666666666666667 -0.6666666666666667 0  -0.2 -0.6666666666666667 0  -0.1333333333333333 -0.6666666666666667 0  -0.06666666666666665 -0.6666666666666667 0  0 -0.6666666666666667 0  0.06666666666666665 -0.6666666666666667 0  0.1333333333333333 -0.6666666666666667 0  0.2 -0.6666666666666667 0  0.2666666666666666 -0.6666666666666667 0  0.3333333333333333 -0.6666666666666667 0  0.3999999999999999 -0.6666666666666667 0  0.4666666666666666 -0.6666666666666667 0  0.5333333333333334 -0.6666666666666667 0  0.6000000000000001 -0.6666666666666667 0  0.6666666666666667 -0.6666666666666667 0  0.7333333333333334 -0.6666666666666667 0  0.8 -0.6666666666666667 0  0.8666666666666667 -0.6666666666666667 0  0.9333333333333333 -0.6666666666666667 0  1 -0.6666666666666667 0  -1 -0.6 0  -0.9333333333333333 -0.6 0  -0.8666666666666667 -0.6 0  -0.8 -0.6 0  -0.7333333333333334 -0.6 0  -0.6666666666666667 -0.6 0  -0.6 -0.6 0  -0.5333333333333333 -0.6 0  -0.4666666666666667 -0.6 0  -0.4 -0.6 0  -0.3333333333333334 -0.6 0  -0.2666666666666667 -0.6 0  -0.2 -0.6 0  -0.1333333333333333 -0.6 0  -0.06666666666666665 -0.6 0  0 -0.6 0  0.06666666666666665 -0.6 0  0.1333333333333333 -0.6 0  0.2 -0.6 0  0.2666666666666666 -0.6 0  0.3333333333333333 -0.6 0  0.3999999999999999 -0.6 0  0.4666666666666666 -0.6 0  0.5333333333333334 -0.6 0  0.6000000000000001 -0.6 0  0.6666666666666667 -0.6 0  0.7333333333333334 -0.6 0  0.8 -0.6 0  0.8666666666666667 -0.6 0  0.9333333333333333 -0.6 0  1 -0.6 0  -1 -0.5333333333333333 0  -0.9333333333333333 -0.5333333333333333 0  -0.8666666666666667 -0.5333333333333333 0  -0.8 -0.5333333333333333 0  -0.7333333333333334 -0.5333333333333333 0  -0.6666666666666667 -0.5333333333333333 0  -0.6 -0.5333333333333333 0  -0.5333333333333333 -0.5333333333333333 0  -0.4666666666666667 -0.5333333333333333 0  -0.4 -0.5333333333333333 0  -0.3333333333333334 -0.5333333333333333 0  -0.2666666666666667 -0.5333333333333333 0  -0.2 -0.5333333333333333 0  -0.1333333333333333 -0.5333333333333333 0  -0.06666666666666665 -0.5333333333333333 0  0 -0.5333333333333333 0  0.06666666666666665 -0.5333333333333333 0  0.1333333333333333 -0.5333333333333333 0  0.2 -0.5333333333333333 0  0.2666666666666666 -0.5333333333333333 0  0.3333333333333333 -0.5333333333333333 0  0.3999999999999999 -0.5333333333333333 0  0.4666666666666666 -0.5333333333333333 0  0.5333333333333334 -0.5333333333333333 0  0.6000000000000001 -0.5333333333333333 0  0.6666666666666667 -0.5333333333333333 0  0.7333333333333334 -0.5333333333333333 0  0.8 -0.5333333333333333 0  0.8666666666666667 -0.5333333333333333 0  0.9333333333333333 -0.5333333333333333 0  1 -0.5333333333333333 0  -1 -0.4666666666666667 0  -0.9333333333333333 -0.4666666666666667 0  -0.8666666666666667 -0.4666666666666667 0  -0.8 -0.4666666666666667 0  -0.7333333333333334 -0.4666666666666667 0  -0.6666666666666667 -0.4666666666666667 0  -0.6 -0.4666666666666667 0  -0.5333333333333333 -0.4666666666666667 0  -0.4666666666666667 -0.4666666666666667 0  -0.4 -0.4666666666666667 0  -0.3333333333333334 -0.4666666666666667 0  -0.2666666666666667 -0.4666666666666667 0  -0.2 -0.4666666666666667 0  -0.1333333333333333 -0.4666666666666667 0  -0.06666666666666665 -0.4666666666666667 0  0 -0.4666666666666667 0  0.06666666666666665 -0.4666666666666667 0  0.1333333333333333 -0.4666666666666667 0  0.2 -0.4666666666666667 0  0.2666666666666666 -0.4666666666666667 0  0.3333333333333333 -0.4666666666666667 0  0.3999999999999999 -0.4666666666666667 0  0.4666666666666666 -0.4666666666666667 0  0.5333333333333334 -0.4666666666666667 0  0.6000000000000001 -0.4666666666666667 0  0.6666666666666667 -0.4666666666666667 0  0.7333333333333334 -0.4666666666666667 0  0.8 -0.4666666666666667 0  0.8666666666666667 -0.4666666666666667 0  0.9333333333333333 -0.4666666666666667 0  1 -0.4666666666666667 0  -1 -0.4 0  -0.9333333333333333 -0.4 0  -0.8666666666666667 -0.4 0  -0.8 -0.4 0  -0.7333333333333334 -0.4 0  -0.6666666666666667 -0.4 0  -0.6 -0.4 0  -0.5333333333333333 -0.4 0  -0.4666666666666667 -0.4 0  -0.4 -0.4 0  -0.3333333333333334 -0.4 0  -0.2666666666666667 -0.4 0  -0.2 -0.4 0  -0.1333333333333333 -0.4 0  -0.06666666666666665 -0.4 0  0 -0.4 0  0.06666666666666665 -0.4 0  0.1333333333333333 -0.4 0  0.2 -0.4 0  0.2666666666666666 -0.4 0  0.3333333333333333 -0.4 0  0.3999999999999999 -0.4 0  0.4666666666666666 -0.4 0  0.5333333333333334 -0.4 0  0.6000000000000001 -0.4 0  0.6666666666666667 -0.4 0  0.7333333333333334 -0.4 0 
[...]
<PointData  Scalars="f_24"> 
<DataArray  type="Float64"  Name="f_24"  format="ascii">0.0000000000000000e+00  0.0000000000000000e+00  0.0000000000000000e+00  0.0000000000000000e+00  0.0000000000000000e+00  0.0000000000000000e+00  0.0000000000000000e+00  0.0000000000000000e+00  0.0000000000000000e+00  0.0000000000000000e+00  0.0000000000000000e+00  0.0000000000000000e+00  0.0000000000000000e+00  0.0000000000000000e+00  0.0000000000000000e+00  0.0000000000000000e+00  0.0000000000000000e+00  0.0000000000000000e+00  0.0000000000000000e+00  0.0000000000000000e+00  0.0000000000000000e+00  0.0000000000000000e+00  0.0000000000000000e+00  0.0000000000000000e+00  0.0000000000000000e+00  0.0000000000000000e+00  0.0000000000000000e+00  0.0000000000000000e+00  0.0000000000000000e+00  0.0000000000000000e+00  1.5219670792011424e+01  0.0000000000000000e+00  -5.7920982791204672e-09  -2.2317149894098652e-07  -1.2331564484581581e-06  -4.1227071076858739e-06  -1.0478120328338920e-05  -2.2247016512829507e-05  -4.1388687838028991e-05  -6.9153409448941989e-05  -1.0469733009617196e-04  -1.4250653386740981e-04  -1.6769044070530590e-04  -1.4746416930208904e-04  -1.5802676651736702e-05  3.5418041708866992e-04  1.2000184088017350e-03  2.9598797014920857e-03  6.4357468393923664e-03  1.3090047301715705e-02  2.5585045074086755e-02  4.8760132130890262e-02  9.1385290718378864e-02  1.6924801748590398e-01  3.1041269929930132e-01  5.6370766292700414e-01  1.0112366655359271e+00  1.7841476196885049e+00  3.0774801732151733e+00  5.1583712964812154e+00  8.3832074231650680e+00  1.3289609848697078e+01  0.0000000000000000e+00  -2.1953993485959584e-08  -3.7222121974580791e-07  -1.8302563433319315e-06  -5.6945921310900328e-06  -1.3625801493423277e-05  -2.7444991894672849e-05  -4.8949897198933361e-05  -7.9794480110691670e-05  -1.2147204114926152e-04  -1.7545643954637775e-04  -2.4359078824547921e-04  -3.2886801065292332e-04  -4.3681172790238632e-04  -5.7768851288942031e-04  -7.6959439568077771e-04  -1.0415596595817820e-03  -1.4328294832891132e-03  -1.9758020717677441e-03  -2.6267846116960702e-03  -3.0498527915731096e-03  -2.0199905334954867e-03  4.0911816634548841e-03  2.4873553104286669e-02  8.3576293229114779e-02  2.3220386780192320e-01  5.7777352712768226e-01  1.3223459593616971e+00  2.8221220803381875e+00  5.7172974666735374e+00  1.1549212309055029e+01  0.0000000000000000e+00  -3.3509602174461754e-08  -4.0740624363946048e-07  -1.7830824330352203e-06  -5.0284880938332993e-06  -1.0898438478348544e-05  -1.9811764363554029e-05  -3.1799202085261311e-05  -4.6623585121172438e-05  -6.4039146827100745e-05  -8.4163026694087926e-05  -1.0796221746697675e-04  -1.3791278052120332e-04  -1.7898201423698022e-04  -2.4026793906584349e-04  -3.3801389224883169e-04  -5.0151738059237211e-04  -7.8504033179235540e-04  -1.2915719196965548e-03  -2.2174040726694755e-03  -3.9230080076135612e-03  -6.9961365002974077e-03  -1.2103367236735335e-02  -1.8891389070892578e-02  -2.1864290063709584e-02  1.4329514532501191e-03  1.1821161978939662e-01  4.9594201778966002e-01  1.5050395574495408e+00  3.9528112249279781e+00  9.9856260066386948e+00  0.0000000000000000e+00  -3.7947476741398372e-08  -3.6293593098319492e-07  -1.4012247438843844e-06  -3.4974298565114462e-06  -6.6252512150163118e-06  -1.0337591225472015e-05  -1.3922335274800175e-05  -1.6635420995407890e-05  -1.7886157191425401e-05  -1.7303286812165597e-05  -1.4658613281664575e-05  -9.6499217833308651e-06  -1.5437722248201551e-06  1.1340990392589605e-05  3.2348375470576189e-05  6.7397042043021549e-05  1.2575240440889927e-04  2.1890392143004544e-04  3.5092768492859264e-04  4.7983928086656414e-04  3.9988517526714449e-04  -5.2977269384952565e-04  -3.7382666732775141e-03  -1.0900777929900365e-02  -1.8578741585364184e-02  2.3471402645111987e-03  1.6288628006684230e-01  7.8581939875442230e-01  2.7281292693600512e+00  8.5864497282101393e+00  0.0000000000000000e+00  -3.6405386964470027e-08  -2.8422862739180742e-07  -9.6108195430751528e-07  -2.0829323008919196e-06  -3.3369227130682237e-06  -4.2305519001284765e-06  -4.3476883990704400e-06  -3.5272557929708097e-06  -1.8893948654264897e-06  2.5757771100389526e-07  2.5505578116725629e-06  4.6728967386311569e-06  6.3823813407282228e-06  7.4609210708100985e-06  7.6232469151805893e-06  6.5043766245606408e-06  4.0605568631102350e-06  2.2396569600539074e-06  9.6052239084720352e-06  4.9525129321656754e-05  1.5681949496552627e-04  2.7892461668489130e-04  -1.5390151272840923e-04  -3.1678373326688249e-03  -1.2104745950686778e-02  -2.1823533250456533e-02  2.5799034985673725e-02  3.7783802520198306e-01  1.8591380579708001e+00  7.3397332137400788e+00  0.0000000000000000e+00  -3.1294511859200870e-08  -2.0373558976005451e-07  -6.0093068852314161e-07  -1.1140866408518232e-06  -1.4608404480997845e-06  -1.3995263944921193e-06  -9.0259425696531048e-07  -1.6176340560565323e-07  5.3498179046586555e-07  9.4406324809586515e-07  9.4522627018650604e-07  5.4248043779575460e-07  -1.8357894593701624e-07  -1.1307171673033258e-06  -2.2104836338370927e-06  -3.3682995426584743e-06  -4.6278109046174088e-06  -6.1636381309261337e-06  -7.8428252257581843e-06  -4.7980127537361839e-06  3.2075830658024414e-05  1.9752652163798100e-04  5.9942378471165229e-04  6.8533619235097297e-04  -2.6209789394729447e-03  -1.4058162571917514e-02  -1.3984929003514144e-02  1.6268023256927722e-01  1.2506044894460357e+00  6.2339771564078807e+00  0.0000000000000000e+00  -2.4866043342211696e-08  -1.3707004264502601e-07  -3.5231442934442581e-07  -5.5239977681431919e-07  -5.7195367968296159e-07  -3.6511747298023546e-07  -4.7443801785704047e-08  2.0395258860317752e-07  2.7511950326258936e-07  1.6833704865636654e-07  -2.6241219286118879e-08  -1.9436069940925262e-07  -2.4885562455519931e-07  -1.4838555007082286e-07  1.0829608707227260e-07  4.8973883031041871e-07  9.0564218476310996e-07  1.0453391856013607e-06  -3.1572930201309629e-07  -7.4850165753554819e-06  -2.9580701596141713e-05  -5.8181732230877031e-05  2.9363700055391179e-05  4.4718051116706683e-04  1.8100917939133877e-04  -6.3265289633382482e-03  -2.0742439849445897e-02  5.0373863715132486e-02  8.1818212854483141e-01  5.2581332026015657e+00  0.0000000000000000e+00  -1.8626724772537448e-08  -8.8039473941439633e-08  -1.9754068259868653e-07  -2.5984972439883774e-07  -2.0333523920237624e-07  -6.1733039143135211e-08  6.2099534140321461e-08  9.5576610127708571e-08  4.6659654935459836e-08  -2.3329452766404366e-08  -5.7026524711714192e-08  -3.6930553910475809e-08  1.5221429749011590e-08  6.0322769678935169e-08  6.4594346228397061e-08  1.5802976536434858e-08  -5.3328315933588707e-08  1.3415640652253754e-08  7.2507309542551576e-07  3.0565312099615856e-06  5.4080505788840043e-06  -6.2587730002459034e-06  -3.0143719255994274e-05  1.4480633485539491e-04  7.6553604595998325e-04  -1.0988839479089900e-03  -1.4744659874685455e-02  -8.1771885293615871e-04  5.1841695015077149e-01  4.4016039519178145e+00  0.0000000000000000e+00  -1.3329743078448679e-08  -5.4633266909923022e-08  -1.0747236726642154e-07  -1.1810384456495904e-07  -6.5813286122508268e-08  4.7210004849645885e-09  3.7833958451306665e-08  2.3790079480392243e-08  -5.5325534786965057e-09  -1.8009580227425176e-08  -8.2450231966879551e-09  7.5973198582214345e-09  1.2337836415937320e-08  1.8961491720803296e-09  -1.4641543843658394e-08  -2.4664258222020575e-08  -2.7534521115398456e-08  -6.3323108153979259e-08  -2.4721461207772216e-07  -5.0622597621089978e-07  6.0438147584678288e-07  1.9039870705556703e-06  -2.3481505602746767e-05  -6.2460152646437111e-05  3.0177161510276077e-04  5.9878963557147735e-04  -8.0361369531221447e-03  -2.0691849191670338e-02  3.1029865311050436e-01  3.6542429571619421e+00  0.0000000000000000e+00  -9.1969228110473195e-09  -3.3034374539290237e-08  -5.7357293700191097e-08  -5.2690099294436050e-08  -1.9113282909847036e-08  1.0721115273317550e-08  1.4726054947732358e-08  2.2979688730683382e-09  -6.2237961536683272e-09  -3.8468337476138375e-09  2.0492406053304855e-09  3.3290422140959585e-09  -1.2039588468805565e-10  -2.8515143866904794e-09  -8.3431254332317994e-10  5.1061085358177628e-09  1.2379862409536335e-08  2.5650052396182580e-08  5.0170794408187017e-08  -4.9435662188070237e-08  -3.4786898962851458e-07  2.4651413215590284e-06  7.1777910313295139e-06  -3.3929434519916291e-05  2.7292724760289299e-05  8.4252443991869000e-04  -2.7678911667012003e-03  -2.4060090993942438e-02  1.7068679523141456e-01  3.0063547243479372e+00  0.0000000000000000e+00  -6.1565889284896577e-09  -1.9579188280611265e-08  -3.0277862167164279e-08  -2.3418836388058096e-08  -4.7324128687816254e-09  6.6462331668968981e-09  4.5988904334594535e-09  -1.1890537672119906e-09  -2.2980231033716304e-09  3.8826827902187302e-11  1.1808592197954379e-09  1.7028545035981988e-10  -7.4211718854334746e-10  -2.2633589804258498e-10  5.8546277020211527e-10  -8.6387819676392553e-11  -2.8240511318657491e-09  -7.4171524734295262e-09  -3.3640247162959271e-09  5.9972886332820276e-08  -9.8229056078165197e-08  -1.1509721360878070e-06  3.2546244208937737e-06  -3.3913242182530244e-06  -8.0857715680554074e-05  4.5358857639535310e-04  4.7008526937921521e-05  -2.0321999019339315e-02  7.8643379579606723e-02  2.4486947126984204e+00  0.0000000000000000e+00  -4.0155338711383719e-09  -1.1420750511783297e-08  -1.5906808958079582e-08  -1.0523914943183300e-08  -8.3206612879686262e-10  3.2400964221723357e-09  1.2233822467743065e-09  -9.0216298534139778e-10  -5.6687890635829498e-10  3.2948067950128000e-10  2.5397079059298542e-10  -1.7459967837462561e-10  -1.2701383881364064e-10  1.3470509912812626e-10  8.0151001014315826e-11  -8.1495261670906550e-11  3.9377724999943484e-10  1.6689913555895128e-09  -3.3285746695777881e-09  -1.8213724082812437e-08  1.2647110843835791e-07  -1.0380493527139653e-07  -7.6453998111627372e-07  1.0544632505162264e-05  -4.7669528497780282e-05  8.7183060453390024e-05  1.2323669414186500e-03  -1.4216489525663354e-02  2.1199241062349529e-02  1.9724693346446804e+00  0.0000000000000000e+00  -2.5584292574689363e-09  -6.5726847804505466e-09  -8.3527450362478371e-09  -4.8505534493033516e-09  9.9556682094487314e-12  1.4438168191085115e-09  2.8792478806301986e-10  -4.0870443723370679e-10  -9.7262587584747413e-11  1.4670700125397808e-10  1.6823946268925959e-11  -6.5554789220480844e-11  1.1036718071108181e-11  3.2283813854608443e-11  -2.4424108646137154e-11  -2.3575951635466170e-11  -9.5747790359340166e-11  -2.1017863430983445e-10  2.6349331855066545e-09  -1.7132387809670212e-09  -4.2955280639252483e-08  2.5487518537817657e-07  -1.2911497402657875e-06  3.8333694937873211e-06  -3.4296259041851297e-06  -1.1166254203550969e-04  1.2944445479861669e-03  -8.2016323370003846e-03  -1.2598982680632998e-02  1.5693359558266495e+00  0.0000000000000000e+00  -1.5943198571868019e-09  -3.7363239375526401e-09  -4.3949109429600763e-09  -2.3209153400124112e-09  8.9615905180339673e-11  6.2568537484360063e-10  6.9144057177897446e-11  -1.5769198552157845e-10  -9.5877904374742335e-12  4.6294837827780496e-11  -8.4263009725924100e-12  -1.2013507395780635e-11  6.6499941378123459e-12  4.0382157727088669e-12  -6.0065182439193230e-12  -1.2372447272849542e-11  1.5927306061584247e-10  -4.6741537927823634e-10  -4.7473057654643648e-11  3.2141978038537787e-09  -1.0549653289447441e-08  5.9286270448118181e-09  2.9552202358698660e-07  -2.7489538915112936e-06  2.1577672890713107e-05  -1.4660836983943783e-04  8.9358753459635345e-04  -3.3594952206582088e-03  -3.0023560534812192e-02  1.2314028950929146e+00  0.0000000000000000e+00  -9.7184110298674898e-10  -2.0979459826856260e-09  -2.3186708159320955e-09  -1.1607868704986689e-09  3.7494144476992459e-11  2.7178258771087860e-10  2.6217876017240140e-11  -5.7956835924586779e-11  -2.1245407305387929e-13  1.2475561691331353e-11  -5.0261273924702676e-12  7.7735553401586526e-12  -3.3618446939025077e-11  1.1014844875771591e-10  -3.1795076958575843e-10  8.7358132805174474e-10  -2.3929187897272014e-09  6.5240209905687401e-09  -1.7146160660955775e-08  4.2630392278091178e-08  -9.4405652369878470e-08  1.5805350477147954e-07  -1.6508729834109255e-08  -1.8551754401451930e-06  1.3824513865282189e-05  -7.9180748731750127e-05  3.4418574312513109e-04  4.1640124475500898e-05  -3.6807383202290433e-02  9.5122942450071402e-01  0.0000000000000000e+00  -5.7891831171959695e-10  -1.1622636855722436e-09  -1.2250899884805684e-09  -6.0625591485428224e-10  -5.9335798106605439e-12  1.1894664852435976e-10  1.7568844616705383e-11  -2.1620619947946805e-11  1.8128394537969083e-12  -2.9414379365970448e-12  5.4059534080051728e-12  1.6829359706882237e-11  -1.2865486236240858e-10  5.2810958018257741e-10  -1.7719280719403850e-09  5.3319889333188499e-09  -1.4871453937098852e-08  3.8947880032978540e-08  -9.6397771878797335e-08  2.2647748012404010e-07  -5.0805763505796396e-07  1.0923297856304399e-06  -2.2422945473785089e-06  4.3253282022585877e-06  -7.5302569851543055e-06  1.4870033145303185e-05  -1.1801271964271832e-04  2.0782723723780767e-03  -3.6884930825600432e-02  7.2182576931593934e-01  0.0000000000000000e+00  -3.3633608423392641e-10  -6.3386747988196313e-10  -6.4618858338052090e-10  -3.2776446340696041e-10  -2.5249066376541336e-11  5.1395469495723544e-11  1.2426583959851542e-11  -7.1215418059994079e-12  4.1543998608287305e-12  -1.7519311017535002e-11  3.6300162811208081e-11  -2.6758098951275163e-11  -1.5250556687213985e-10  9.6227214912819722e-10  -3.6823384668572318e-09  1.1502391784807725e-08  -3.1775033343310016e-08  8.0663621494726390e-08  -1.9308254443913287e-07  4.4489922046573275e-07  -1.0043140996778331e-06  2.2574246694372119e-06  -5.1406886570649018e-06  1.2151241496341716e-05  -3.1255951244232856e-05  9.6659120289676397e-05  -4.2623537494054217e-04  3.0274760039244106e-03  -3.3159489200351146e-02  5.3665310801313371e-01  0.0000000000000000e+00  -1.8998194804388073e-10  -3.3911738437262248e-10  -3.3854399139826465e-10  -1.8085808669575751e-10  -2.8525676309592974e-11  2.0415279760897939e-11  6.9647067219305184e-12  1.8321364842399676e-12  -8.8762915549746259e-13  -1.7776165225903421e-11  6.3736647933235366e-11  -1.3051537975436993e-10  1.0119184887795157e-10  4.9361971632865593e-10  -3.0456885652231396e-09  1.1135965509313602e-08  -3.3315127903417100e-08  8.9193005822326110e-08  -2.2282381057567182e-07  5.3288332560806164e-07  -1.2444163231334932e-06  2.8923946859027784e-06  -6.8377727863007180e-06  1.6904969604727955e-05  -4.5494283386088191e-05  1.4198900495885147e-04  -5.6513586296800253e-04  3.1957293643359330e-03  -2.7598242117913986e-02  3.8962357227549255e-01  0.0000000000000000e+00  -1.0387157731739447e-10  -1.7709418306143336e-10  -1.7499151163725209e-10  -1.0009011041820472e-10  -2.4219157828315717e-11  5.4223895705074929e-12  3.8191723537248879e-12  6.0385420145607191e-12  -1.1864405220042388e-11  1.0153398283298298e-11  2.4627346171081294e-11  -1.4075965238021069e-10  3.7626218952138548e-10  -6.2084487541776178e-10  1.8865644901663177e-10  3.2991211746917024e-09  -1.6576411343209843e-08  5.6821742837308990e-08  -1.6558698527766281e-07  4.4139855171504367e-07  -1.1191172495492966e-06  2.7749772408777571e-06  -6.9026415938477574e-06  1.7722777526565773e-05  -4.8744185557579630e-05  1.5130868487186892e-04  -5.7081896868092395e-04  2.8783706034910717e-03  -2.1537203063112978e-02  2.7510024699486341e-01  0.0000000000000000e+00  -5.4631851154652426e-11  -8.9684239272598591e-11  -8.8475465402692512e-11  -5.4448082012399561e-11  -1.7921076538103764e-11  -1.3687124673016081e-12  3.7137512120019649e-12  1.5618875433788000e-12  -1.0285568065508121e-11  3.1685405359295721e-11  -5.6415791363952552e-11  3.4740754316671981e-11  1.6100078578192240e-10  -7.4177869697989182e-10  1.8461540674322922e-09  -2.9129803938576398e-09  8.5679618545354441e-10  1.4628759612665653e-08  -7.2573005203572341e-08  2.4877680498976984e-07  -7.3618361338774500e-07  2.0307568732392248e-06  -5.4591441093956751e-06  1.4827717965924017e-05  -4.2270386611438745e-05  1.3266558063860929e-04  -4.8919730784090253e-04  2.3153026923290704e-03  -1.5807422952334279e-02  1.8789717027174607e-01  0.0000000000000000e+00  -2.7414364096131649e-11  -4.3667543792234816e-11  -4.3241873701605593e-11  -2.8577486773327571e-11  -1.2223576788072842e-11  -2.7407327511303873e-12  2.6862852793498839e-12  -4.8259262435141165e-12  6.6816541015704677e-12  5.9612764858091114e-12  -5.2294590542563591e-11  1.4615717267649029e-10  -2.4611985555158724e-10  1.6266055413147532e-10  5.4642469269316149e-10  -2.5285440063796272e-09  5.9560645228719646e-09  -7.9966184176800736e-09  -4.5686016211484190e-09  7.5153837352796849e-08  -3.2972969915772415e-07  1.1191705367293331e-06  -3.4298798229107779e-06  1.0174017854606737e-05  -3.0729686723704876e-05  9.9464000724517487e-05  -3.6738001239132077e-04  1.6863884271323174e-03  -1.0881233398863741e-02  1.2327933341529261e-01  0.0000000000000000e+00  -1.2982163399323727e-11  -2.0197467770115978e-11  -2.0113020698739833e-11  -1.4313881067866233e-11  -7.5050880758519726e-12  -1.7649983707537442e-12  -8.0903530762762414e-13  -2.2351022837794161e-12  1.1235454354216365e-11  -2.5257431457244442e-11  3.0364070667468873e-11  1.5494033612443008e-11  -1.7833990669652060e-10  4.9209668760917343e-10  -8.0144292198054445e-10  4.9307422129627145e-10  1.7371293039914165e-09  -7.4774116168912070e-09  1.5769893446962621e-08  -1.2974446744856707e-08  -5.8157568361151223e-08  3.8933624075502064e-07  -1.5798937628404999e-06  5.5127347507689126e-06  -1.8455215165759195e-05  6.3620905003570881e-05  -2.4208584872046057e-04  1.1094462848396424e-03  -6.9653392758314923e-03  7.6962680943307202e-02  0.0000000000000000e+00  -5.7140880514134239e-12  -8.7186958832476152e-12  -8.7539479383993104e-12  -6.7474510316701959e-12  -3.8105086588442334e-12  -1.4123805648564728e-12  -2.1724856429955130e-12  3.5144307645826364e-12  -3.1508708706142569e-12  -7.7413100931817335e-12  3.9704066765582887e-11  -9.0616446641586005e-11  1.1508492439358920e-10  7.3976860789059916e-12  -4.4922357982868547e-10  1.2542911149818623e-09  -1.8885800051450461e-09  5.5110570470101099e-10  6.1681602776364988e-09  -2.1018628137859607e-08  3.4036247459346150e-08  2.1509492493367286e-08  -4.1707564519673331e-07  2.1323848772633339e-06  -8.6934536299685171e-06  3.3709049231231862e-05  -1.3734809165655835e-04  6.4909348461852359e-04  -4.0829253894145582e-03  4.5114110582246174e-02  0.0000000000000000e+00  -2.2855856304776599e-12  -3.4268745802742507e-12  -3.5048323084408917e-12  -2.8409558680601636e-12  -1.6150435293725797e-12  -1.5082200161238454e-12  1.4891885724115796e-15  1.2311520720892442e-12  -6.8920783819681712e-12  1.5186731065204494e-11  -1.6929597061143129e-11  -1.1193189148921822e-11  9.6948845544243792e-11  -2.3098221687502011e-10  2.8896759808191762e-10  3.2296869706723789e-11  -1.1131214144122739e-09  2.8796961459147381e-09  -3.5901400734858382e-09  -1.8175066337802933e-09  2.1537179993392029e-08  -5.5596864956983370e-08  3.9783764988742722e-08  3.8034428665173527e-07  -2.7495117281958805e-06  1.3669838654122557e-05  -6.3959179289879914e-05  3.2666998780195105e-04  -2.1352325026628141e-03  2.4351473267218256e-02  0.0000000000000000e+00  -8.0288073690570348e-13  -1.1872270382361817e-12  -1.2491409642638367e-12  -9.6877619962666232e-13  -7.8064771400908269e-13  -6.7978705468074860e-13  8.2420063020163968e-13  -2.6052572753715117e-12  2.8179025936550168e-12  1.9967099769926893e-12  -1.7600237841497672e-11  4.2233678680142986e-11  -5.2128807481233248e-11  -8.7239714622923773e-12  2.0162146344909080e-10  -4.8990724042699242e-10  5.6124357019306954e-10  2.8444699754266934e-10  -2.7883321933969620e-09  6.2548313683316430e-09  -5.3479892053628634e-09  -1.3670448524084139e-08  6.7696997188866804e-08  -1.1730622063617267e-07  -2.5079613224764050e-07  3.3876924572002685e-06  -2.1921312181706920e-05  1.3236959223499075e-04  -9.5197015383312756e-04  1.1743573141984114e-02  0.0000000000000000e+00  -2.3493598681277696e-13  -3.4686650138690851e-13  -3.6015874433314379e-13  -2.6920319505390406e-13  -3.9103002620673233e-13