<?xml version="1.0"?>
<VTKFile type="UnstructuredGrid"  version="0.1"  >
<UnstructuredGrid>
<Piece  NumberOfPoints="961" NumberOfCells="1800">
<Points>
<DataArray  type="Float64"  NumberOfComponents="3"  format="ascii">-1 -1 0  -0.9333333333333333 -1 0  -0.8666666666666667 -1 0  -0.8 -1 0  -0.7333333333333334 -1 0  -0.6666666666666667 -1 0  -0.6 -1 0  -0.5333333333333333 -1 0  -0.4666666666666667 -1 0  -0.4 -1 0  -0.3333333333333334 -1 0  -0.2666666666666667 -1 0  -0.2 -1 0  -0.1333333333333333 -1 0  -0.06666666666666665 -1 0  0 -1 0  0.06666666666666665 -1 0  0.1333333333333333 -1 0  0.2 -1 0  0.2666666666666666 -1 0  0.3333333333333333 -1 0  0.3999999999999999 -1 0  0.4666666666666666 -1 0  0.5333333333333334 -1 0  0.6000000000000001 -1 0  0.6666666666666667 -1 0  0.7333333333333334 -1 0  0.8 -1 0  0.8666666666666667 -1 0  0.9333333333333333 -1 0  1 -1 0  -1 -0.9333333333333333 0  -0.9333333333333333 -0.9333333333333333 0  -0.8666666666666667 -0.9333333333333333 0  -0.8 -0.9333333333333333 0  -0.7333333333333334 -0.9333333333333333 0  -0.6666666666666667 -0.9333333333333333 0  -0.6 -0.9333333333333333 0  -0.5333333333333333 -0.9333333333333333 0  -0.4666666666666667 -0.9333333333333333 0  -0.4 -0.9333333333333333 0  -0.3333333333333334 -0.9333333333333333 0  -0.2666666666666667 -0.9333333333333333 0  -0.2 -0.9333333333333333 0  -0.1333333333333333 -0.9333333333333333 0  -0.06666666666666665 -0.9333333333333333 0  0 -0.9333333333333333 0  0.06666666666666665 -0.9333333333333333 0  0.1333333333333333 -0.9333333333333333 0  0.2 -0.9333333333333333 0  0.2666666666666666 -0.9333333333333333 0  0.3333333333333333 -0.9333333333333333 0  0.3999999999999999 -0.9333333333333333 0  0.4666666666666666 -0.9333333333333333 0  0.5333333333333334 -0.9333333333333333 0  0.6000000000000001 -0.9333333333333333 0  0.6666666666666667 -0.9333333333333333 0  0.7333333333333334 -0.9333333333333333 0  0.8 -0.9333333333333333 0  0.8666666666666667 -0.9333333333333333 0  0.9333333333333333 -0.9333333333333333 0  1 -0.9333333333333333 0  -1 -0.8666666666666667 0  -0.9333333333333333 -0.8666666666666667 0  -0.8666666666666667 -0.8666666666666667 0  -0.8 -0.8666666666666667 0  -0.7333333333333334 -0.8666666666666667 0  -0.6666666666666667 -0.8666666666666667 0  -0.6 -0.8666666666666667 0  -0.5333333333333333 -0.8666666666666667 0  -0.4666666666666667 -0.8666666666666667 0  -0.4 -0.8666666666666667 0  -0.3333333333333334 -0.8666666666666667 0  -0.2666666666666667 -0.8666666666666667 0  -0.2 -0.8666666666666667 0  -0.1333333333333333 -0.8666666666666667 0  -0.06666666666666665 -0.8666666666666667 0  0 -0.8666666666666667 0  0.06666666666666665 -0.8666666666666667 0  0.1333333333333333 -0.8666666666666667 0  0.2 -0.8666666666666667 0  0.2666666666666666 -0.8666666666666667 0  0.3333333333333333 -0.8666666666666667 0  0.3999999999999999 -0.8666666666666667 0  0.4666666666666666 -0.8666666666666667 0  0.5333333333333334 -0.8666666666666667 0  0.6000000000000001 -0.8666666666666667 0  0.6666666666666667 -0.8666666666666667 0  0.7333333333333334 -0.8666666666666667 0  0.8 -0.8666666666666667 0  0.8666666666666667 -0.8666666666666667 0  0.9333333333333333 -0.8666666666666667 0  1 -0.8666666666666667 0  -1 -0.8 0  -0.9333333333333333 -0.8 0  -0.8666666666666667 -0.8 0  -0.8 -0.8 0  -0.7333333333333334 -0.8 0  -0.6666666666666667 -0.8 0  -0.6 -0.8 0  -0.5333333333333333 -0.8 0  -0.4666666666666667 -0.8 0  -0.4 -0.8 0  -0.3333333333333334 -0.8 0  -0.2666666666666667 -0.8 0  -0.2 -0.8 0  -0.1333333333333333 -0.8 0  -0.06666666666666665 -0.8 0  0 -0.8 0  0.06666666666666665 -0.8 0  0.1333333333333333 -0.8 0  0.2 -0.8 0  0.2666666666666666 -0.8 0  0.3333333333333333 -0.8 0  0.3999999999999999 -0.8 0  0.4666666666666666 -0.8 0  0.5333333333333334 -0.8 0  0.6000000000000001 -0.8 0  0.6666666666666667 -0.8 0  0.7333333333333334 -0.8 0  0.8 -0.8 0  0.8666666666666667 -0.8 0  0.9333333333333333 -0.8 0  1 -0.8 0  -1 -0.7333333333333334 0  -0.9333333333333333 -0.7333333333333334 0  -0.8666666666666667 -0.7333333333333334 0  -0.8 -0.7333333333333334 0  -0.7333333333333334 -0.7333333333333334 0  -0.6666666666666667 -0.7333333333333334 0  -0.6 -0.7333333333333334 0  -0.5333333333333333 -0.7333333333333334 0  -0.4666666666666667 -0.7333333333333334 0  -0.4 -0.7333333333333334 0  -0.3333333333333334 -0.7333333333333334 0  -0.2666666666666667 -0.7333333333333334 0  -0.2 -0.7333333333333334 0  -0.1333333333333333 -0.7333333333333334 0  -0.06666666666666665 -0.7333333333333334 0  0 -0.7333333333333334 0  0.06666666666666665 -0.7333333333333334 0  0.1333333333333333 -0.7333333333333334 0  0.2 -0.7333333333333334 0  0.2666666666666666 -0.7333333333333334 0  0.3333333333333333 -0.7333333333333334 0  0.3999999999999999 -0.7333333333333334 0  0.4666666666666666 -0.7333333333333334 0  0.5333333333333334 -0.7333333333333334 0  0.6000000000000001 -0.7333333333333334 0  0.6666666666666667 -0.7333333333333334 0  0.7333333333333334 -0.7333333333333334 0  0.8 -0.7333333333333334 0  0.8666666666666667 -0.7333333333333334 0  0.9333333333333333 -0.7333333333333334 0  1 -0.7333333333333334 0  -1 -0.6666666666666667 0  -0.9333333333333333 -0.6666666666666667 0  -0.8666666666666667 -0.6666666666666667 0  -0.8 -0.6666666666666667 0  -0.7333333333333334 -0.6666666666666667 0  -0.6666666666666667 -0.6666666666666667 0  -0.6 -0.6666666666666667 0  -0.5333333333333333 -0.6666666666666667 0  -0.4666666666666667 -0.6666666666666667 0  -0.4 -0.6666666666666667 0  -0.3333333333333334 -0.6666666666666667 0  -0.2666666666666667 -0.6666666666666667 0  -0.2 -0.6666666666666667 0  -0.1333333333333333 -0.6666666666666667 0  -0.06666666666666665 -0.6666666666666667 0  0 -0.6666666666666667 0  0.06666666666666665 -0.6666666666666667 0  0.1333333333333333 -0.6666666666666667 0  0.2 -0.6666666666666667 0  0.2666666666666666 -0.6666666666666667 0  0.3333333333333333 -0.6666666666666667 0  0.3999999999999999 -0.6666666666666667 0  0.4666666666666666 -0.6666666666666667 0  0.5333333333333334 -0.6666666666666667 0  0.6000000000000001 -0.6666666666666667 0  0.6666666666666667 -0.6666666666666667 0  0.7333333333333334 -0.6666666666666667 0  0.8 -0.6666666666666667 0  0.8666666666666667 -0.6666666666666667 0  0.9333333333333333 -0.6666666666666667 0  1 -0.6666666666666667 0  -1 -0.6 0  -0.9333333333333333 -0.6 0  -0.8666666666666667 -0.6 0  -0.8 -0.6 0  -0.7333333333333334 -0.6 0  -0.6666666666666667 -0.6 0  -0.6 -0.6 0  -0.5333333333333333 -0.6 0  -0.4666666666666667 -0.6 0  -0.4 -0.6 0  -0.3333333333333334 -0.6 0  -0.2666666666666667 -0.6 0  -0.2 -0.6 0  -0.1333333333333333 -0.6 0  -0.06666666666666665 -0.6 0  0 -0.6 0  0.06666666666666665 -0.6 0  0.1333333333333333 -0.6 0  0.2 -0.6 0  0.2666666666666666 -0.6 0  0.3333333333333333 -0.6 0  0.3999999999999999 -0.6 0  0.4666666666666666 -0.6 0  0.5333333333333334 -0.6 0  0.6000000000000001 -0.6 0  0.6666666666666667 -0.6 0  0.7333333333333334 -0.6 0  0.8 -0.6 0  0.8666666666666667 -0.6 0  0.9333333333333333 -0.6 0  1 -0.6 0  -1 -0.5333333333333333 0  -0.9333333333333333 -0.5333333333333333 0  -0.8666666666666667 -0.5333333333333333 0  -0.8 -0.5333333333333333 0  -0.7333333333333334 -0.5333333333333333 0  -0.6666666666666667 -0.5333333333333333 0  -0.6 -0.5333333333333333 0  -0.5333333333333333 -0.5333333333333333 0  -0.4666666666666667 -0.5333333333333333 0  -0.4 -0.5333333333333333 0  -0.3333333333333334 -0.5333333333333333 0  -0.2666666666666667 -0.5333333333333333 0  -0.2 -0.5333333333333333 0  -0.1333333333333333 -0.5333333333333333 0  -0.06666666666666665 -0.5333333333333333 0  0 -0.5333333333333333 0  0.06666666666666665 -0.5333333333333333 0  0.1333333333333333 -0.5333333333333333 0  0.2 -0.5333333333333333 0  0.2666666666666666 -0.5333333333333333 0  0.3333333333333333 -0.5333333333333333 0  0.3999999999999999 -0.5333333333333333 0  0.4666666666666666 -0.5333333333333333 0  0.5333333333333334 -0.5333333333333333 0  0.6000000000000001 -0.5333333333333333 0  0.6666666666666667 -0.5333333333333333 0  0.7333333333333334 -0.5333333333333333 0  0.8 -0.5333333333333333 0  0.8666666666666667 -0.5333333333333333 0  0.9333333333333333 -0.5333333333333333 0  1 -0.5333333333333333 0  -1 -0.4666666666666667 0  -0.9333333333333333 -0.4666666666666667 0  -0.8666666666666667 -0.4666666666666667 0  -0.8 -0.4666666666666667 0  -0.7333333333333334 -0.4666666666666667 0  -0.6666666666666667 -0.4666666666666667 0  -0.6 -0.4666666666666667 0  -0.5333333333333333 -0.4666666666666667 0  -0.4666666666666667 -0.4666666666666667 0  -0.4 -0.4666666666666667 0  -0.3333333333333334 -0.4666666666666667 0  -0.2666666666666667 -0.4666666666666667 0  -0.2 -0.4666666666666667 0  -0.1333333333333333 -0.4666666666666667 0  -0.06666666666666665 -0.4666666666666667 0  0 -0.4666666666666667 0  0.06666666666666665 -0.4666666666666667 0  0.1333333333333333 -0.4666666666666667 0  0.2 -0.4666666666666667 0  0.2666666666666666 -0.4666666666666667 0  0.3333333333333333 -0.4666666666666667 0  0.3999999999999999 -0.4666666666666667 0  0.4666666666666666 -0.4666666666666667 0  0.5333333333333334 -0.4666666666666667 0  0.6000000000000001 -0.4666666666666667 0  0.6666666666666667 -0.4666666666666667 0  0.7333333333333334 -0.4666666666666667 0  0.8 -0.4666666666666667 0  0.8666666666666667 -0.4666666666666667 0  0.9333333333333333 -0.4666666666666667 0  1 -0.4666666666666667 0  -1 -0.4 0  -0.9333333333333333 -0.4 0  -0.8666666666666667 -0.4 0  -0.8 -0.4 0  -0.7333333333333334 -0.4 0  -0.6666666666666667 -0.4 0  -0.6 -0.4 0  -0.5333333333333333 -0.4 0  -0.4666666666666667 -0.4 0  -0.4 -0.4 0  -0.3333333333333334 -0.4 0  -0.2666666666666667 -0.4 0  -0.2 -0.4 0  -0.1333333333333333 -0.4 0  -0.06666666666666665 -0.4 0  0 -0.4 0  0.06666666666666665 -0.4 0  0.1333333333333333 -0.4 0  0.2 -0.4 0  0.2666666666666666 -0.4 0  0.3333333333333333 -0.4 0  0.3999999999999999 -0.4 0  0.4666666666666666 -0.4 0  0.5333333333333334 -0.4 0  0.6000000000000001 -0.4 0  0.6666666666666667 -0.4 0  0.7333333333333334 -0.4 0 
[...]
<PointData  Scalars="f_24"> 
<DataArray  type="Float64"  Name="f_24"  format="ascii">0.0000000000000000e+00  0.0000000000000000e+00  0.0000000000000000e+00  0.0000000000000000e+00  0.0000000000000000e+00  0.0000000000000000e+00  0.0000000000000000e+00  0.0000000000000000e+00  0.0000000000000000e+00  0.0000000000000000e+00  0.0000000000000000e+00  0.0000000000000000e+00  0.0000000000000000e+00  0.0000000000000000e+00  0.0000000000000000e+00  0.0000000000000000e+00  0.0000000000000000e+00  0.0000000000000000e+00  0.0000000000000000e+00  0.0000000000000000e+00  0.0000000000000000e+00  0.0000000000000000e+00  0.0000000000000000e+00  0.0000000000000000e+00  0.0000000000000000e+00  0.0000000000000000e+00  0.0000000000000000e+00  0.0000000000000000e+00  0.0000000000000000e+00  0.0000000000000000e+00  1.4190726987474520e+01  0.0000000000000000e+00  5.4479923382809588e-04  3.8047330959748269e-03  1.1686050956049404e-02  2.5387877791807394e-02  4.5461427862325807e-02  7.2080377642741791e-02  1.0522929847440557e-01  1.4483423633288500e-01  1.9085690595330315e-01  2.4336596864361287e-01  3.0259555391423604e-01  3.6899915267523908e-01  4.4330640285960676e-01  5.2659074037763254e-01  6.2035726339653174e-01  7.2666275723704066e-01  8.4828418518798920e-01  9.8895896111275583e-01  1.1537314761464621e+00  1.3494581978099067e+00  1.5855527801680942e+00  1.8751018725240558e+00  2.2365693944608886e+00  2.6964723157877741e+00  3.2937411992017505e+00  4.0872146685500415e+00  5.1695244963457849e+00  6.6950822611511649e+00  8.9475750880255127e+00  1.2391150091886377e+01  0.0000000000000000e+00  1.0324330408437768e-03  6.3457621157776405e-03  1.8329075425961440e-02  3.7352378914742107e-02  6.2199406112552813e-02  9.0921098269702197e-02  1.2141971737726319e-01  1.5180989519188887e-01  1.8059695256536365e-01  2.0672996739392721e-01  2.2958106085025887e-01  2.4889023286519948e-01  2.6470362660086888e-01  2.7732374751267069e-01  2.8728442180934505e-01  2.9536174156935746e-01  3.0263540861344645e-01  3.1062412227208513e-01  3.2153696497764833e-01  3.3871615092030749e-01  3.6740649866778113e-01  4.1609518788188965e-01  4.9886514037588003e-01  6.3958494198547200e-01  8.7953941177804762e-01  1.2918285272069885e+00  2.0101724942387804e+00  3.2936406426759546e+00  5.6918662176680748e+00  1.0768414181744616e+01  0.0000000000000000e+00  1.3471451909506864e-03  7.3661467331091633e-03  1.9593593910339838e-02  3.6357523380418040e-02  5.4239918283026579e-02  6.9842099198071231e-02  8.0730986153676104e-02  8.5728379642275018e-02  8.4767009839617186e-02  7.8561632325774955e-02  6.8259740685177081e-02  5.5156989935081085e-02  4.0504139661103111e-02  2.5399033073813599e-02  1.0744151047079634e-02  -2.7503887097840673e-03  -1.4532505778863575e-02  -2.4146367122393781e-02  -3.1131103338879612e-02  -3.4839493628713032e-02  -3.4078130232691295e-02  -2.6346502362921513e-02  -6.1872167437020571e-03  3.8412027941953704e-02  1.3383457018078912e-01  3.3789630622829964e-01  7.7803088766962714e-01  1.7408608723826760e+00  3.9269768646959773e+00  9.3105359764820328e+00  0.0000000000000000e+00  1.4768620735694906e-03  7.1817007428056955e-03  1.7322318448002430e-02  2.8591748561692595e-02  3.6966462046377289e-02  4.0006215794204512e-02  3.7402649934647023e-02  3.0456937558422433e-02  2.1192658298780077e-02  1.1606113760017999e-02  3.2284422944795061e-03  -3.0201249983989090e-03  -6.7842370859324047e-03  -8.1380359352131986e-03  -7.4326080683222162e-03  -5.1652813119468146e-03  -1.8852403403434690e-03  1.8641089131088550e-03  5.5722717727291083e-03  8.7697178065753775e-03  1.1044079646945879e-02  1.2150255778964163e-02  1.2494161768876133e-02  1.4821370600991150e-02  2.9450758943889467e-02  8.9099046398825044e-02  2.8880447105103252e-01  8.9491262288078410e-01  2.6523349721197498e+00  8.0059526615162433e+00  0.0000000000000000e+00  1.4528465466324293e-03  6.2800698054314499e-03  1.3595723678101921e-02  1.9593192140750247e-02  2.1252422812046961e-02  1.8239090290804741e-02  1.2308110924037982e-02  5.8380730319235810e-03  6.6413515154010116e-04  -2.3723601023304419e-03  -3.3172780052386098e-03  -2.7489283617591976e-03  -1.4194124361343442e-03  -6.3073672272350328e-06  1.0089928592246949e-03  1.3671395657378128e-03  1.0017019551396996e-03  -1.2572605062736938e-05  -1.5153619260573207e-03  -3.3151941198057543e-03  -5.2519419898171766e-03  -7.2890554918708314e-03  -9.6356334272072793e-03  -1.2629491047371115e-02  -1.4984603741953567e-02  -4.8395065186339912e-03  7.4043043810490192e-02  4.3270744822328139e-01  1.8060518443556068e+00  6.8435218882496729e+00  0.0000000000000000e+00  1.3237273162620940e-03  5.0925103935616249e-03  9.8369339935809527e-03  1.2192401491904771e-02  1.0707318386527272e-02  6.6529402204948476e-03  2.3388169529930734e-03  -5.7009104728850308e-04  -1.6477865763838827e-03  -1.3818236798858498e-03  -5.6331332664465823e-04  1.7034506082322663e-04  5.1213775658229634e-04  4.5311926730292229e-04  1.6055002208024264e-04  -1.4535484481026682e-04  -2.7615002162874954e-04  -1.1591621919454563e-04  3.7164887333976306e-04  1.1562922164373762e-03  2.1615695112396581e-03  3.2680695744588388e-03  4.2307062679568536e-03  4.3350158333480097e-03  2.0148534628358201e-03  -2.6452809088728557e-03  1.3630016204930939e-02  1.9808878598325882e-01  1.2061716797752080e+00  5.8125217740695643e+00  0.0000000000000000e+00  1.1379201873323785e-03  3.9077080566902898e-03  6.7195139060334495e-03  7.0764881320578531e-03  4.8143229973876701e-03  1.7729092463935972e-03  -3.1223146407921343e-04  -9.4512497477791365e-04  -6.2726628518467841e-04  -9.1435293950358881e-05  2.1481858530811947e-04  2.1932755808621137e-04  6.5551627775286192e-05  -7.5860337053987079e-05  -1.1407774084113960e-04  -5.6103403341110797e-05  2.6255352658430360e-05  4.1975844199279889e-05  -8.3200850234168148e-05  -3.8681398747247739e-04  -8.6171994313859429e-04  -1.4461620571149031e-03  -2.0183479300681650e-03  -2.4965253597726946e-03  -3.6757424504899822e-03  -8.3943035004909339e-03  -1.3510778902548710e-02  6.7015891009257436e-02  7.8611427137173384e-01  4.9026509023479701e+00  0.0000000000000000e+00  9.3405828674749986e-04  2.8759436679876944e-03  4.4059838575457519e-03  3.9058792915165922e-03  1.9332591896527647e-03  1.5186057624633689e-04  -5.4654716987432997e-04  -3.9842205383623875e-04  -4.3879754702646119e-05  1.2717204872066037e-04  9.2659490922602952e-05  -2.9649561909341525e-06  -4.8376616633810018e-05  -2.8512159007773796e-05  1.2718245852264076e-05  3.1628218108802011e-05  1.8646142798209496e-05  1.9979285661361507e-07  2.1814728261345182e-05  1.2706735516561523e-04  3.4102927508951688e-04  6.5953560924650215e-04  1.0786217526254605e-03  1.6468879551929810e-03  2.3777185426733932e-03  9.8447383315884989e-04  -7.8832472882563471e-03  1.3444343658814348e-02  5.0042909544235881e-01  4.1040283224417680e+00  0.0000000000000000e+00  7.3813241909526843e-04  2.0490523285997715e-03  2.8070386697243680e-03  2.0820866013542987e-03  6.7464194908183658e-04  -2.1384111513838577e-04  -3.1534423732309998e-04  -8.2525762942683477e-05  6.6250691523757390e-05  5.5419427498254230e-05  -3.4411248457003474e-06  -2.4450180566084743e-05  -7.9448565066658377e-06  9.6012739562896148e-06  8.5343353197862876e-06  -3.5912439847444872e-06  -1.0721171843847220e-05  -8.2501152038225852e-06  -9.8781455126625062e-06  -4.1742299682425178e-05  -1.3147246641821345e-04  -2.9688754392109503e-04  -5.6231463195948589e-04  -8.6533196239816398e-04  -9.9521860357167503e-04  -1.1058992810968717e-03  -8.1260996611234211e-03  -1.4355948192691176e-02  2.9638784522232881e-01  3.4071935496926313e+00  0.0000000000000000e+00  5.6470864820964473e-04  1.4225020182469200e-03  1.7534509168680924e-03  1.0864954674106393e-03  1.8302921206126335e-04  -2.0637242886911746e-04  -1.3190192220439246e-04  1.3258235617849241e-05  4.1992774694173015e-05  5.9671030204202727e-06  -1.3235410038453327e-05  -4.9158022453031810e-06  4.7337917251587592e-06  3.2435043707157915e-06  -2.0227120085065580e-06  -2.2879798689115533e-06  1.7984907844558243e-06  4.6878813977621609e-06  5.7699102313481585e-06  1.4382730171167067e-05  4.8749155873984947e-05  1.2634255958310592e-04  2.7094528390087560e-04  4.1328411049575814e-04  7.4960031698610675e-04  1.4773629578805597e-03  -8.7306103645927067e-04  -1.8104044844860136e-02  1.6699874351844662e-01  2.8031065654270670e+00  0.0000000000000000e+00  4.1980840984664791e-04  9.6642319021706053e-04  1.0811491640018780e-03  5.6224975349736695e-04  1.6456422059553525e-05  -1.3402153001895926e-04  -4.3981424326418923e-05  2.3622720674973669e-05  1.5107262438450506e-05  -5.1654808111165719e-06  -5.1007651779912883e-06  1.6296221761212564e-06  2.0039997276334830e-06  -7.5745697815929127e-07  -9.9246137671550937e-07  4.9206482226821404e-07  4.9313716581092808e-07  -1.1710629686127202e-06  -2.7538551930919132e-06  -5.3573723357452381e-06  -1.7683650058633123e-05  -4.8693774506042013e-05  -1.2350443603366810e-04  -2.1203265861716918e-04  -5.0397367076137874e-04  -1.1573639671350617e-04  -8.9595537231008720e-04  -1.7708168164971502e-02  7.5171620690089799e-02  2.2831478169563786e+00  0.0000000000000000e+00  3.0392184864730729e-04  6.4421838006697757e-04  6.6104558993349406e-04  2.9232911495019582e-04  -2.6751314418839148e-05  -7.6626283564573618e-05  -1.1287271682174422e-05  1.5512566526844608e-05  3.5081932527954391e-06  -3.9881830814499635e-06  -7.7794319032273456e-07  1.3322072614695507e-06  7.6828548888650145e-08  -5.4519152681069878e-07  9.7222387527851500e-08  2.6878051605048276e-07  -1.3110501310681401e-07  1.0655940614236044e-08  8.7840852166379296e-07  1.9396338658306661e-06  6.6832417904436200e-06  1.5567528215536227e-05  5.8024880500658989e-05  9.6658616327926922e-05  2.2379104003232916e-04  2.7956134773231826e-04  1.8400584236826444e-03  -1.2056887185889553e-02  2.3426664143251938e-02  1.8391182175766976e+00  0.0000000000000000e+00  2.1445496493758051e-04  4.2182154737044531e-04  4.0184611043880201e-04  1.5465982650111944e-04  -2.9431687061692854e-05  -4.2289987303201062e-05  -1.6867525999554917e-06  8.2344842717438007e-06  2.7566131392664909e-07  -1.8799672154122437e-06  1.9408314023467343e-07  4.7525676486648696e-07  -1.8613496166888361e-07  -1.0172023195843233e-07  1.1594392797055124e-07  -1.1140464548392165e-08  -6.4183135098755028e-08  2.7919396270473436e-08  -1.7889795414931474e-07  -4.8018137887500629e-07  -2.9375744876414707e-06  -2.7245620070661267e-06  -3.0364661312658042e-05  -2.1295706791683677e-05  -1.6077564429646621e-04  -1.8920429708919829e-04  6.6602611358556132e-04  -7.2813113716529076e-03  -1.1401755609825497e-02  1.4632391465689620e+00  0.0000000000000000e+00  1.4744180586217286e-04  2.7121034714161588e-04  2.4297809846176546e-04  8.4119153754441266e-05  -2.2108511716451936e-05  -2.3737469147041047e-05  1.5015381025448449e-07  4.1686794512846095e-06  -1.8513602410336852e-07  -7.8291552165169691e-07  1.8144943211399830e-07  1.2902065940883168e-07  -8.8482976477652723e-08  2.5809185897427418e-09  2.6864963423336827e-08  -1.9107832526199900e-08  4.1870337936357738e-09  6.4316500240171289e-09  6.5357055837354294e-08  -1.0060513297586284e-07  1.7274055302962889e-06  -1.7195917245392979e-06  1.7437619259133592e-05  -7.3748002011239111e-06  1.2166669773765454e-04  -1.3591687875760887e-04  1.1485128602309116e-03  -2.8814717473626475e-03  -2.6356656391437989e-02  1.1481524491989261e+00  0.0000000000000000e+00  9.8608589186021845e-05  1.7090894090585263e-04  1.4585010985392006e-04  4.7227841597547505e-05  -1.4494144670069012e-05  -1.3957157400045506e-05  -4.0789414510930931e-08  2.1665252521897536e-06  -5.5920562665723038e-08  -3.3936323821840399e-07  6.7979902581610534e-08  3.9532661411196004e-08  -2.5132508459864070e-08  4.3115959111285333e-09  2.4743237741604296e-09  -2.6777863502089411e-09  9.1285523140093567e-11  1.1917365455687358e-08  -8.4537791580029814e-08  3.4016609517496506e-07  -1.5197276707959652e-06  3.4599598973074569e-06  -1.2310723938502680e-05  1.3762541570114939e-05  -5.3324603894749663e-05  -3.9743566006994788e-05  7.6507954601654673e-05  1.8264753903514316e-04  -3.4302802587921837e-02  8.8692043671715748e-01  0.0000000000000000e+00  6.3957772600275244e-05  1.0518497722373498e-04  8.6500066735916410e-05  2.7210217630541550e-05  -8.8715706923868822e-06  -8.6623612046326520e-06  -5.0120565800702587e-07  1.1604584574358147e-06  8.6862286548003442e-08  -1.5547652646683894e-07  5.7465436649333838e-09  1.6384219416483688e-08  -4.3632839670771159e-09  6.3490270089073960e-10  -1.3130288520833042e-09  4.5057925543943317e-09  -1.2498631903888981e-08  2.3789812859973883e-08  -6.4440943949263702e-09  -1.6538217496456500e-07  9.0327844941468643e-07  -2.6726056519064454e-06  7.8924919657886688e-06  -1.3417993733744507e-05  3.7958628283223710e-05  -2.6191640613184845e-05  2.5112498108941852e-05  1.9464548737456221e-03  -3.3718902152804604e-02  6.7302588635903848e-01  0.0000000000000000e+00  4.0035073159801553e-05  6.2858811708856814e-05  5.0272408890255519e-05  1.5799897839146846e-05  -5.2441590991786237e-06  -5.6226506793037476e-06  -8.1874574232838653e-07  5.9376562178611492e-07  1.5330601986892126e-07  -6.0214247671831430e-08  -1.5440462342720849e-08  5.0932936857373563e-09  6.3106717158864346e-10  5.7671970340352806e-10  -3.0681608898862977e-09  1.0102471742500545e-08  -3.0007119462862286e-08  8.9672825409711516e-08  -2.7450575863897011e-07  8.1663710676976594e-07  -2.2545766794668284e-06  5.5783686816820919e-06  -1.2945428974027243e-05  2.6553245747089685e-05  -5.9956783225361595e-05  1.2716500117375003e-04  -4.9088196282168249e-04  2.8885178401678261e-03  -3.0930313719549629e-02  5.0037204134476521e-01  0.0000000000000000e+00  2.4006464744453455e-05  3.6151899203733981e-05  2.8262054453439599e-05  8.9578902323900946e-06  -3.1066434131282135e-06  -3.7638744357043708e-06  -9.5799094749986068e-07  2.3080003131177097e-07  1.5343101000689027e-07  -1.6075012591771893e-09  -1.4183442624726754e-08  -1.8044325120493658e-09  6.8192058885094325e-10  3.7643386797274284e-10  -2.4091202950358540e-09  9.4710343373090272e-09  -2.6827361229178596e-08  5.7882179558255450e-08  -8.8405401520513726e-08  6.2724284280212380e-08  1.1209120369873024e-07  -4.1526089663187996e-07  2.4458801025499157e-07  3.7069139725309286e-06  -2.1345833874338791e-05  1.0474815158002775e-04  -4.7597834237760359e-04  2.9541334543002518e-03  -2.5489209103284886e-02  3.6328261087934777e-01  0.0000000000000000e+00  1.3632724129138236e-05  1.9732204498505152e-05  1.5052312037049688e-05  4.7062440251678674e-06  -1.9594855539767688e-06  -2.5824009906941211e-06  -9.6634505960648792e-07  -1.7035014842706797e-08  1.0760983428546552e-07  3.0062670562066219e-08  -2.5153474044075153e-09  -3.1105708095814868e-09  -3.4267660797832043e-10  -7.2519346380293801e-10  3.9664862682931545e-10  2.6239707965646815e-09  -1.7919753822156326e-08  7.7394423639837476e-08  -2.7125192183499569e-07  8.1187948917458359e-07  -2.1342947816242066e-06  5.0740300173388081e-06  -1.1340497101024376e-05  2.5011885667430360e-05  -5.9037379565101474e-05  1.5968973045100678e-04  -5.6278000193584875e-04  2.7106586202007726e-03  -2.0079730945495797e-02  2.5650177015261050e-01  0.0000000000000000e+00  7.1967365423625240e-06  9.9841345487725205e-06  7.3210076832805762e-06  2.0541648580471348e-06  -1.4113000335302309e-06  -1.8305150692485733e-06  -9.0024346770350670e-07  -1.8314636959515082e-07  3.5494621796300838e-08  3.4498674876765715e-08  9.2850941133145311e-09  6.6290817269348852e-10  -3.7293059768169358e-10  -8.1632150607008418e-10  1.4933603711956158e-09  -3.0152821268744014e-09  6.2057668503759011e-09  -1.8390156770736042e-08  5.8077739457825416e-08  -1.4658160454834835e-07  2.4581870697084940e-07  -5.7271239155890707e-08  -1.5263089798319187e-06  8.0248982813298381e-06  -3.0747047984038837e-05  1.1202687039414181e-04  -4.3976686281626648e-04  2.1440328787262286e-03  -1.4664527031533162e-02  1.7519416033919169e-01  0.0000000000000000e+00  3.4156710121341379e-06  4.4768588790629963e-06  3.0000762989542776e-06  4.7216238545277737e-07  -1.1746476910028306e-06  -1.3621828292554140e-06  -8.0593009911922074e-07  -2.8583529690769407e-07  -4.4672478981911580e-08  1.3520740276284407e-08  1.1923868805278745e-08  4.9817737778485865e-09  1.1323647917488433e-09  6.7529649019369935e-10  5.7908032316654510e-10  -1.4154924768311570e-09  -1.5091924046001193e-09  2.6898374021161557e-08  -1.2253077381317222e-07  3.9058187007849349e-07  -1.0271414575311180e-06  2.4282920198420131e-06  -5.5390704511310975e-06  1.3038662659407220e-05  -3.3604259088156574e-05  9.9126664386415769e-05  -3.5078471184938796e-04  1.5804380577383358e-03  -1.0139612210226153e-02  1.1494488859854368e-01  0.0000000000000000e+00  1.3550298220983620e-06  1.5893700169330007e-06  7.7685998361826917e-07  -3.6203125137911109e-07  -1.0504204090337856e-06  -1.0668144478595696e-06  -7.0906996163043773e-07  -3.3988711423698348e-07  -1.1775131480815251e-07  -2.5424154640476432e-08  -9.6268123636060496e-11  3.4586737117661408e-09  1.8928210239734676e-09  1.6176981004478188e-09  -3.7547756776526989e-10  -3.5014761542417165e-10  9.9518446238813963e-09  -4.1782087293284875e-08  1.2130725442107049e-07  -2.7276689499709736e-07  4.8006248834102949e-07  -5.8448623471277061e-07  1.5723221894127717e-08  3.0210727035641391e-06  -1.4417049491838636e-05  5.5867983856658916e-05  -2.2155843447189367e-04  1.0298527414601471e-03  -6.4760215620349986e-03  7.1759528074932924e-02  0.0000000000000000e+00  3.5241817259996287e-07  2.5179963776941087e-07  -1.9808212939391800e-07  -6.8134248947895469e-07  -9.1967569766824006e-07  -8.5294367627795244e-07  -6.1097295980855331e-07  -3.5396027944581645e-07  -1.7128032668736589e-07  -6.9591215881916864e-08  -2.4985559196628264e-08  -7.4023325789666119e-09  -2.3567359387517712e-09  -5.0997095961731645e-10  -8.9190491406357227e-10  2.7705907836199725e-09  -1.1600804958049818e-08  3.4239383158101339e-08  -8.5263230422872055e-08  1.7938693300165800e-07  -3.3888916711112896e-07  6.2116705502610969e-07  -1.2572969130850971e-06  3.1259769393076912e-06  -9.4802372207127852e-06  3.2978329072184631e-05  -1.2971198069253989e-04  6.0666998675619141e-04  -3.8033285363428706e-03  4.2064117897439871e-02  0.0000000000000000e+00  -4.6400509237183352e-08  -2.3047668277481740e-07  -4.8051945598368154e-07  -6.7695249675278781e-07  -7.3693736938131191e-07  -6.5741749731477184e-07  -4.9841701152963514e-07  -3.2830195072312508e-07  -1.9345183611641501e-07  -1.0259791252874178e-07  -5.2204474410313355e-08  -2.4223441073787468e-08  -1.2509061947170012e-08  -5.6462199348109402e-09  -3.0798476600299723e-09  -3.8816120042398392e-09  7.7914058909562545e-09  -2.8407117713591769e-08  6.8448659348453446e-08  -1.4470678539270050e-07  2.6173708884601962e-07  -4.1177299604013459e-07  5.1612609946861075e-07  -2.2664365443924555e-07  -1.9093609602603150e-06  1.2047952769795739e-05  -5.8902889184315092e-05  3.0374351757614414e-04  -1.9872294183912562e-03  2.2705163179959211e-02  0.0000000000000000e+00  -1.3924171008814710e-07  -2.9546741046122502e-07  -4.3072066917627425e-07  -5.0933404959614051e-07  -5.1520484772891247e-07  -4.5769470707981374e-07  -3.6440569253170705e-07  -2.6321861156561190e-07  -1.7651417161677218e-07  -1.0953187352535149e-07  -6.6632030816109839e-08  -3.6983729619000526e-08  -2.2711577424396302e-08  -1.1400143254123495e-08  -8.2194530688608069e-09  -1.1598407200005065e-09  -1.2252023777800283e-08  2.4802162969855535e-08  -5.7983589873310056e-08  1.0220655827520265e-07  -1.5451029152368974e-07  1.8968361881155800e-07  -1.8292934785068210e-07  1.6096903982046552e-07  -5.0526109479195819e-07  3.4076747929057811e-06  -2.0642895460535200e-05  1.2352196744737490e-04  -8.8650692467845101e-04  1.0949635021199465e-02  0.0000000000000000e+00  -1.0859962811205865e-07  -2.0457938019669502e-07  -2.7145333931081101e-07  -3.0265289045187442e-07  -2.9932316036377390e-07  -2.6907018837995442e-07  -2.2340762822896826e-07  -1.7278302617654904e-07  -1.2665191616786560e-07  -8.71