<?xml version="1.0"?>
<VTKFile type="UnstructuredGrid"  version="0.1"  >
<UnstructuredGrid>
<Piece  NumberOfPoints="961" NumberOfCells="1800">
<Points>
<DataArray  type="Float64"  NumberOfComponents="3"  format="ascii">-1 -1 0  -0.9333333333333333 -1 0  -0.8666666666666667 -1 0  -0.8 -1 0  -0.7333333333333334 -1 0  -0.6666666666666667 -1 0  -0.6 -1 0  -0.5333333333333333 -1 0  -0.4666666666666667 -1 0  -0.4 -1 0  -0.3333333333333334 -1 0  -0.2666666666666667 -1 0  -0.2 -1 0  -0.1333333333333333 -1 0  -0.06666666666666665 -1 0  0 -1 0  0.06666666666666665 -1 0  0.1333333333333333 -1 0  0.2 -1 0  0.2666666666666666 -1 0  0.3333333333333333 -1 0  0.3999999999999999 -1 0  0.4666666666666666 -1 0  0.5333333333333334 -1 0  0.6000000000000001 -1 0  0.6666666666666667 -1 0  0.7333333333333334 -1 0  0.8 -1 0  0.8666666666666667 -1 0  0.9333333333333333 -1 0  1 -1 0  -1 -0.9333333333333333 0  -0.9333333333333333 -0.9333333333333333 0  -0.8666666666666667 -0.9333333333333333 0  -0.8 -0.9333333333333333 0  -0.7333333333333334 -0.9333333333333333 0  -0.6666666666666667 -0.9333333333333333 0  -0.6 -0.9333333333333333 0  -0.5333333333333333 -0.9333333333333333 0  -0.4666666666666667 -0.9333333333333333 0  -0.4 -0.9333333333333333 0  -0.3333333333333334 -0.9333333333333333 0  -0.2666666666666667 -0.9333333333333333 0  -0.2 -0.9333333333333333 0  -0.1333333333333333 -0.9333333333333333 0  -0.06666666666666665 -0.9333333333333333 0  0 -0.9333333333333333 0  0.06666666666666665 -0.9333333333333333 0  0.1333333333333333 -0.9333333333333333 0  0.2 -0.9333333333333333 0  0.2666666666666666 -0.9333333333333333 0  0.3333333333333333 -0.9333333333333333 0  0.3999999999999999 -0.9333333333333333 0  0.4666666666666666 -0.9333333333333333 0  0.5333333333333334 -0.9333333333333333 0  0.6000000000000001 -0.9333333333333333 0  0.6666666666666667 -0.9333333333333333 0  0.7333333333333334 -0.9333333333333333 0  0.8 -0.9333333333333333 0  0.8666666666666667 -0.9333333333333333 0  0.9333333333333333 -0.9333333333333333 0  1 -0.9333333333333333 0  -1 -0.8666666666666667 0  -0.9333333333333333 -0.8666666666666667 0  -0.8666666666666667 -0.8666666666666667 0  -0.8 -0.8666666666666667 0  -0.7333333333333334 -0.8666666666666667 0  -0.6666666666666667 -0.8666666666666667 0  -0.6 -0.8666666666666667 0  -0.5333333333333333 -0.8666666666666667 0  -0.4666666666666667 -0.8666666666666667 0  -0.4 -0.8666666666666667 0  -0.3333333333333334 -0.8666666666666667 0  -0.2666666666666667 -0.8666666666666667 0  -0.2 -0.8666666666666667 0  -0.1333333333333333 -0.8666666666666667 0  -0.06666666666666665 -0.8666666666666667 0  0 -0.8666666666666667 0  0.06666666666666665 -0.8666666666666667 0  0.1333333333333333 -0.8666666666666667 0  0.2 -0.8666666666666667 0  0.2666666666666666 -0.8666666666666667 0  0.3333333333333333 -0.8666666666666667 0  0.3999999999999999 -0.8666666666666667 0  0.4666666666666666 -0.8666666666666667 0  0.5333333333333334 -0.8666666666666667 0  0.6000000000000001 -0.8666666666666667 0  0.6666666666666667 -0.8666666666666667 0  0.7333333333333334 -0.8666666666666667 0  0.8 -0.8666666666666667 0  0.8666666666666667 -0.8666666666666667 0  0.9333333333333333 -0.8666666666666667 0  1 -0.8666666666666667 0  -1 -0.8 0  -0.9333333333333333 -0.8 0  -0.8666666666666667 -0.8 0  -0.8 -0.8 0  -0.7333333333333334 -0.8 0  -0.6666666666666667 -0.8 0  -0.6 -0.8 0  -0.5333333333333333 -0.8 0  -0.4666666666666667 -0.8 0  -0.4 -0.8 0  -0.3333333333333334 -0.8 0  -0.2666666666666667 -0.8 0  -0.2 -0.8 0  -0.1333333333333333 -0.8 0  -0.06666666666666665 -0.8 0  0 -0.8 0  0.06666666666666665 -0.8 0  0.1333333333333333 -0.8 0  0.2 -0.8 0  0.2666666666666666 -0.8 0  0.3333333333333333 -0.8 0  0.3999999999999999 -0.8 0  0.4666666666666666 -0.8 0  0.5333333333333334 -0.8 0  0.6000000000000001 -0.8 0  0.6666666666666667 -0.8 0  0.7333333333333334 -0.8 0  0.8 -0.8 0  0.8666666666666667 -0.8 0  0.9333333333333333 -0.8 0  1 -0.8 0  -1 -0.7333333333333334 0  -0.9333333333333333 -0.7333333333333334 0  -0.8666666666666667 -0.7333333333333334 0  -0.8 -0.7333333333333334 0  -0.7333333333333334 -0.7333333333333334 0  -0.6666666666666667 -0.7333333333333334 0  -0.6 -0.7333333333333334 0  -0.5333333333333333 -0.7333333333333334 0  -0.4666666666666667 -0.7333333333333334 0  -0.4 -0.7333333333333334 0  -0.3333333333333334 -0.7333333333333334 0  -0.2666666666666667 -0.7333333333333334 0  -0.2 -0.7333333333333334 0  -0.1333333333333333 -0.7333333333333334 0  -0.06666666666666665 -0.7333333333333334 0  0 -0.7333333333333334 0  0.06666666666666665 -0.7333333333333334 0  0.1333333333333333 -0.7333333333333334 0  0.2 -0.7333333333333334 0  0.2666666666666666 -0.7333333333333334 0  0.3333333333333333 -0.7333333333333334 0  0.3999999999999999 -0.7333333333333334 0  0.4666666666666666 -0.7333333333333334 0  0.5333333333333334 -0.7333333333333334 0  0.6000000000000001 -0.7333333333333334 0  0.6666666666666667 -0.7333333333333334 0  0.7333333333333334 -0.7333333333333334 0  0.8 -0.7333333333333334 0  0.8666666666666667 -0.7333333333333334 0  0.9333333333333333 -0.7333333333333334 0  1 -0.7333333333333334 0  -1 -0.6666666666666667 0  -0.9333333333333333 -0.6666666666666667 0  -0.8666666666666667 -0.6666666666666667 0  -0.8 -0.6666666666666667 0  -0.7333333333333334 -0.6666666666666667 0  -0.6666666666666667 -0.6666666666666667 0  -0.6 -0.6666666666666667 0  -0.5333333333333333 -0.6666666666666667 0  -0.4666666666666667 -0.6666666666666667 0  -0.4 -0.6666666666666667 0  -0.3333333333333334 -0.6666666666666667 0  -0.2666666666666667 -0.6666666666666667 0  -0.2 -0.6666666666666667 0  -0.1333333333333333 -0.6666666666666667 0  -0.06666666666666665 -0.6666666666666667 0  0 -0.6666666666666667 0  0.06666666666666665 -0.6666666666666667 0  0.1333333333333333 -0.6666666666666667 0  0.2 -0.6666666666666667 0  0.2666666666666666 -0.6666666666666667 0  0.3333333333333333 -0.6666666666666667 0  0.3999999999999999 -0.6666666666666667 0  0.4666666666666666 -0.6666666666666667 0  0.5333333333333334 -0.6666666666666667 0  0.6000000000000001 -0.6666666666666667 0  0.6666666666666667 -0.6666666666666667 0  0.7333333333333334 -0.6666666666666667 0  0.8 -0.6666666666666667 0  0.8666666666666667 -0.6666666666666667 0  0.9333333333333333 -0.6666666666666667 0  1 -0.6666666666666667 0  -1 -0.6 0  -0.9333333333333333 -0.6 0  -0.8666666666666667 -0.6 0  -0.8 -0.6 0  -0.7333333333333334 -0.6 0  -0.6666666666666667 -0.6 0  -0.6 -0.6 0  -0.5333333333333333 -0.6 0  -0.4666666666666667 -0.6 0  -0.4 -0.6 0  -0.3333333333333334 -0.6 0  -0.2666666666666667 -0.6 0  -0.2 -0.6 0  -0.1333333333333333 -0.6 0  -0.06666666666666665 -0.6 0  0 -0.6 0  0.06666666666666665 -0.6 0  0.1333333333333333 -0.6 0  0.2 -0.6 0  0.2666666666666666 -0.6 0  0.3333333333333333 -0.6 0  0.3999999999999999 -0.6 0  0.4666666666666666 -0.6 0  0.5333333333333334 -0.6 0  0.6000000000000001 -0.6 0  0.6666666666666667 -0.6 0  0.7333333333333334 -0.6 0  0.8 -0.6 0  0.8666666666666667 -0.6 0  0.9333333333333333 -0.6 0  1 -0.6 0  -1 -0.5333333333333333 0  -0.9333333333333333 -0.5333333333333333 0  -0.8666666666666667 -0.5333333333333333 0  -0.8 -0.5333333333333333 0  -0.7333333333333334 -0.5333333333333333 0  -0.6666666666666667 -0.5333333333333333 0  -0.6 -0.5333333333333333 0  -0.5333333333333333 -0.5333333333333333 0  -0.4666666666666667 -0.5333333333333333 0  -0.4 -0.5333333333333333 0  -0.3333333333333334 -0.5333333333333333 0  -0.2666666666666667 -0.5333333333333333 0  -0.2 -0.5333333333333333 0  -0.1333333333333333 -0.5333333333333333 0  -0.06666666666666665 -0.5333333333333333 0  0 -0.5333333333333333 0  0.06666666666666665 -0.5333333333333333 0  0.1333333333333333 -0.5333333333333333 0  0.2 -0.5333333333333333 0  0.2666666666666666 -0.5333333333333333 0  0.3333333333333333 -0.5333333333333333 0  0.3999999999999999 -0.5333333333333333 0  0.4666666666666666 -0.5333333333333333 0  0.5333333333333334 -0.5333333333333333 0  0.6000000000000001 -0.5333333333333333 0  0.6666666666666667 -0.5333333333333333 0  0.7333333333333334 -0.5333333333333333 0  0.8 -0.5333333333333333 0  0.8666666666666667 -0.5333333333333333 0  0.9333333333333333 -0.5333333333333333 0  1 -0.5333333333333333 0  -1 -0.4666666666666667 0  -0.9333333333333333 -0.4666666666666667 0  -0.8666666666666667 -0.4666666666666667 0  -0.8 -0.4666666666666667 0  -0.7333333333333334 -0.4666666666666667 0  -0.6666666666666667 -0.4666666666666667 0  -0.6 -0.4666666666666667 0  -0.5333333333333333 -0.4666666666666667 0  -0.4666666666666667 -0.4666666666666667 0  -0.4 -0.4666666666666667 0  -0.3333333333333334 -0.4666666666666667 0  -0.2666666666666667 -0.4666666666666667 0  -0.2 -0.4666666666666667 0  -0.1333333333333333 -0.4666666666666667 0  -0.06666666666666665 -0.4666666666666667 0  0 -0.4666666666666667 0  0.06666666666666665 -0.4666666666666667 0  0.1333333333333333 -0.4666666666666667 0  0.2 -0.4666666666666667 0  0.2666666666666666 -0.4666666666666667 0  0.3333333333333333 -0.4666666666666667 0  0.3999999999999999 -0.4666666666666667 0  0.4666666666666666 -0.4666666666666667 0  0.5333333333333334 -0.4666666666666667 0  0.6000000000000001 -0.4666666666666667 0  0.6666666666666667 -0.4666666666666667 0  0.7333333333333334 -0.4666666666666667 0  0.8 -0.4666666666666667 0  0.8666666666666667 -0.4666666666666667 0  0.9333333333333333 -0.4666666666666667 0  1 -0.4666666666666667 0  -1 -0.4 0  -0.9333333333333333 -0.4 0  -0.8666666666666667 -0.4 0  -0.8 -0.4 0  -0.7333333333333334 -0.4 0  -0.6666666666666667 -0.4 0  -0.6 -0.4 0  -0.5333333333333333 -0.4 0  -0.4666666666666667 -0.4 0  -0.4 -0.4 0  -0.3333333333333334 -0.4 0  -0.2666666666666667 -0.4 0  -0.2 -0.4 0  -0.1333333333333333 -0.4 0  -0.06666666666666665 -0.4 0  0 -0.4 0  0.06666666666666665 -0.4 0  0.1333333333333333 -0.4 0  0.2 -0.4 0  0.2666666666666666 -0.4 0  0.3333333333333333 -0.4 0  0.3999999999999999 -0.4 0  0.4666666666666666 -0.4 0  0.5333333333333334 -0.4 0  0.6000000000000001 -0.4 0  0.6666666666666667 -0.4 0  0.7333333333333334 -0.4 0 
[...]
<PointData  Scalars="f_24"> 
<DataArray  type="Float64"  Name="f_24"  format="ascii">0.0000000000000000e+00  0.0000000000000000e+00  0.0000000000000000e+00  0.0000000000000000e+00  0.0000000000000000e+00  0.0000000000000000e+00  0.0000000000000000e+00  0.0000000000000000e+00  0.0000000000000000e+00  0.0000000000000000e+00  0.0000000000000000e+00  0.0000000000000000e+00  0.0000000000000000e+00  0.0000000000000000e+00  0.0000000000000000e+00  0.0000000000000000e+00  0.0000000000000000e+00  0.0000000000000000e+00  0.0000000000000000e+00  0.0000000000000000e+00  0.0000000000000000e+00  0.0000000000000000e+00  0.0000000000000000e+00  0.0000000000000000e+00  0.0000000000000000e+00  0.0000000000000000e+00  0.0000000000000000e+00  0.0000000000000000e+00  0.0000000000000000e+00  0.0000000000000000e+00  1.2969347935522993e+01  0.0000000000000000e+00  4.3312894579116620e-02  1.0178586366603871e-01  1.6141225142155763e-01  2.1804152454525713e-01  2.7169739100755669e-01  3.2292760705533735e-01  3.7243337961793344e-01  4.2099044638044691e-01  4.6943202402995915e-01  5.1866452554927722e-01  5.6969219511467206e-01  6.2364948157864364e-01  6.8184566188248785e-01  7.4582585132135315e-01  8.1745504581437922e-01  8.9903475786648512e-01  9.9346581992795158e-01  1.1044777102943106e+00  1.2369551830119623e+00  1.3974093974666932e+00  1.5946674322745278e+00  1.8408990373546523e+00  2.1531790072877017e+00  2.5559339021128133e+00  3.0849262429432871e+00  3.7940866868596288e+00  4.7682125333945322e+00  6.1483739172838323e+00  8.1938913208932380e+00  1.1324658490351405e+01  0.0000000000000000e+00  8.1772312518790385e-02  1.8742503532825264e-01  2.8476448780294483e-01  3.6223098944753501e-01  4.1946657008200278e-01  4.5808011920735192e-01  4.8078694479782513e-01  4.9057966715874535e-01  4.9034604796911185e-01  4.8267615751186183e-01  4.6977649956297068e-01  4.5346666398500896e-01  4.3522459218400206e-01  4.1625986592935454e-01  3.9760634969968084e-01  3.8023311783627517e-01  3.6518295734370532e-01  3.5376048556696382e-01  3.4781047245196584e-01  3.5015837140313183e-01  3.6533995145161086e-01  4.0084542803149159e-01  4.6928536865264281e-01  5.9223286330877123e-01  8.0720352003960183e-01  1.1808378519838068e+00  1.8351728273078591e+00  3.0070362211311559e+00  5.1981582144237732e+00  9.8415895366133590e+00  0.0000000000000000e+00  1.1364507750220400e-01  2.4980540236356724e-01  3.5567232259996678e-01  4.1348665874771501e-01  4.2844893106864557e-01  4.1039351073858593e-01  3.7064897762595805e-01  3.1910682855141420e-01  2.6337952255584551e-01  2.0869727188578430e-01  1.5825540259962212e-01  1.1371841942230677e-01  7.5700725744546976e-02  4.4160777029887639e-02  1.8692894286060410e-02  -1.2709792312469860e-03  -1.6324271368254473e-02  -2.6984772248081535e-02  -3.3594201626870143e-02  -3.6164406867446534e-02  -3.4069463651813583e-02  -2.5373673280171101e-02  -5.3454402946152470e-03  3.6811589570396798e-02  1.2509562255254261e-01  3.1226157459920273e-01  7.1482535239704781e-01  1.5945015121551791e+00  3.5925811671148744e+00  8.5091891804966355e+00  0.0000000000000000e+00  1.3806266696039254e-01  2.8788247254425642e-01  3.7826440645600640e-01  3.9278755675952914e-01  3.5258779670188473e-01  2.8307976403831075e-01  2.0631598831970258e-01  1.3636591419675459e-01  8.0114733601036034e-02  3.9208736894492308e-02  1.2282951996294495e-02  -3.3432937390191096e-03  -1.0607328471498865e-02  -1.2152827322185871e-02  -1.0121337372302112e-02  -6.1331555440865583e-03  -1.3563949786843492e-03  3.3935334943563712e-03  7.5539417512407066e-03  1.0729538979502049e-02  1.2642966826688591e-02  1.3193329104538961e-02  1.2871738820128938e-02  1.4292312381053406e-02  2.6956738126095389e-02  8.0854263601542270e-02  2.6276870148580611e-01  8.1654539167701634e-01  2.4217251108796405e+00  7.3168898051648839e+00  0.0000000000000000e+00  1.5493701250579825e-01  3.0460983375929118e-01  3.6593840775667641e-01  3.3369704163320829e-01  2.5205097455822834e-01  1.6113924267012797e-01  8.6116564167826579e-02  3.5353938676280575e-02  7.0007651511166374e-03  -5.1858942051674333e-03  -7.7568907294067006e-03  -5.8038102656394431e-03  -2.5917770225229639e-03  1.3858280471804209e-04  1.6873026174269834e-03  1.9670142576742118e-03  1.1957170345172851e-03  -2.9495596423430483e-04  -2.1672596309415958e-03  -4.1360373751048738e-03  -6.0130167331200772e-03  -7.7717398607841997e-03  -9.6401052096568279e-03  -1.1983632642473513e-02  -1.3674503494402317e-02  -3.9831100125114855e-03  6.8597741910605858e-02  3.9638365845269280e-01  1.6524976251787618e+00  6.2545080707576171e+00  0.0000000000000000e+00  1.6478448636039825e-01  3.0481842878314114e-01  3.3346032966448103e-01  2.6397045615601916e-01  1.6319794970215634e-01  7.7540514555205581e-02  2.4583251934274759e-02  4.2648121743283073e-04  -5.9449197053210489e-03  -4.6023983631285573e-03  -1.6203893445047622e-03  4.2847321777420922e-04  1.0934998201270819e-03  8.1572263431579017e-04  2.0183516686653031e-04  -2.8652430493573109e-04  -4.0490443522015856e-04  -9.0958258129264917e-05  5.9914339331049290e-04  1.5492675857174322e-03  2.6252368785816809e-03  3.6845723720680293e-03  4.4971601069751978e-03  4.4304771442381565e-03  2.0622345527610774e-03  -2.4294757008169478e-03  1.2040710389785818e-02  1.8068908279228132e-01  1.1010064567140931e+00  5.3122449143902193e+00  0.0000000000000000e+00  1.6850684914539110e-01  2.9359810716309054e-01  2.9268996650722046e-01  1.9991644523634783e-01  9.8445679861590737e-02  3.0973553338194834e-02  1.4427011366516867e-03  -5.1190943801181360e-03  -3.1004956996705029e-03  -4.2145892448158974e-04  6.9434921056030165e-04  5.8654034525801465e-04  1.1705596125159424e-04  -1.9005892413870334e-04  -2.1714771234674466e-04  -7.7687220989987177e-05  5.5574671595101424e-05  4.8616540109278100e-05  -1.6236069800422718e-04  -5.7523269786584276e-04  -1.1381716222404721e-03  -1.7566998722936393e-03  -2.2947194695910416e-03  -2.6761233652802950e-03  -3.6078382009608473e-03  -7.7861581097949627e-03  -1.2111388189589720e-02  6.1369279736460579e-02  7.1944131444827275e-01  4.4806855501539369e+00  0.0000000000000000e+00  1.6718506635238628e-01  2.7536608342910235e-01  2.5141199246540158e-01  1.4817916758211042e-01  5.6582353798929688e-02  9.0091797097735619e-03  -4.0424757078761026e-03  -3.0784445684633572e-03  -3.4896584780105713e-04  5.7839984297213735e-04  3.3983004017504369e-04  -3.6046678995944187e-05  -1.4072426021294297e-04  -5.6832279054439577e-05  4.0832406961003780e-05  6.4108056941552551e-05  2.8473390755037458e-05  1.0499496391026982e-06  4.9322092442373478e-05  2.1305045154847144e-04  4.9580447699386376e-04  8.6704322097779570e-04  1.2970226397819682e-03  1.8220530001852424e-03  2.4183911018240672e-03  1.0982171469565796e-03  -7.2821762023726512e-03  1.2345329978287479e-02  4.5671167366145327e-01  3.7507994691158957e+00  0.0000000000000000e+00  1.6192033245109200e-01  2.5350725758506881e-01  2.1385417758953110e-01  1.0956440273670136e-01  3.1675744953143972e-02  2.7037578755831826e-04  -3.6857775656010884e-03  -9.7813176203986147e-04  4.5001596242918036e-04  3.0483760860823496e-04  -3.2132651474710810e-05  -9.9110449667558971e-05  -1.5529682046002006e-05  3.2756679346869574e-05  1.8023205371284394e-05  -1.3329866040432660e-05  -2.3172893676197468e-05  -1.5069480965204376e-05  -2.1338067160087565e-05  -7.8950151414383738e-05  -2.1233131683674316e-04  -4.2525391560752893e-04  -7.2003276651089534e-04  -1.0316061788837802e-03  -1.1225145669812107e-03  -1.2277283214865882e-03  -7.4323009557547134e-03  -1.3246774636466908e-02  2.7127017061508835e-01  3.1139404393190699e+00  0.0000000000000000e+00  1.5373153315272972e-01  2.3037273764806024e-01  1.8174829507108700e-01  8.2231691781654181e-02  1.7758873076977797e-02  -2.4337571488728185e-03  -2.3043828984031021e-03  -1.1746870078954618e-06  3.9031702861763463e-04  3.0025077489575891e-05  -8.0928665873872962e-05  -1.8282326575535402e-05  2.4366389412902328e-05  8.2362387637023200e-06  -8.3193910544458776e-06  -4.9437816392734485e-06  6.4225594202690294e-06  1.0904808393854248e-05  1.2425361983605185e-05  3.0210596714525946e-05  8.7917832203095517e-05  1.9993737632961297e-04  3.7660471220698284e-04  5.5031440943003576e-04  8.5596814601116423e-04  1.5546590795536502e-03  -7.3588942998282396e-04  -1.6390351060660314e-02  1.5243635185120857e-01  2.5618465057823210e+00  0.0000000000000000e+00  1.4350211167232699e-01  2.0744883967991481e-01  1.5532795463326460e-01  6.3621769980113305e-02  1.0401705983125478e-02  -2.8048656619108262e-03  -1.2644810218464110e-03  2.7260754366435259e-04  2.0069967677827289e-04  -5.7962547357152677e-05  -3.5977757763522860e-05  1.3523823222607643e-05  1.0437429285877854e-05  -5.8054586220316636e-06  -3.0070680800832369e-06  2.3377990838016138e-06  9.3204688483517677e-07  -3.9194036552451605e-06  -6.9025705021142179e-06  -1.2503330747865765e-05  -3.5397881763187802e-05  -8.7586415761442592e-05  -1.8829504470728906e-04  -3.0987188045557973e-04  -5.8910381495174725e-04  -2.7760404418549433e-04  -9.0950376158480009e-04  -1.6330827321678010e-02  6.8750123486966519e-02  2.0866399905003603e+00  0.0000000000000000e+00  1.3196288375945692e-01  1.8557413299200887e-01  1.3405704036336383e-01  5.1364262674776007e-02  6.7784384641997554e-03  -2.4652780066385851e-03  -6.9817977800332035e-04  2.7752113639043928e-04  8.2966469649482517e-05  -5.7426810686913421e-05  -5.6824826125901933e-06  1.2091240780864236e-05  -5.7191173358175364e-08  -3.9529082189833941e-06  1.2970324139209421e-06  1.0279250946370763e-06  -6.6314565100444942e-07  2.5973629077951289e-07  2.8146458817512767e-06  5.4007259891543471e-06  1.4397934189370652e-05  3.4443779088699928e-05  9.3862907141899213e-05  1.6063532026054300e-04  2.9580098169952607e-04  3.8642032901393909e-04  1.7837934212604875e-03  -1.0894696930431640e-02  2.1456778569665744e-02  1.6808274924437798e+00  0.0000000000000000e+00  1.1969732726905603e-01  1.6514114492781981e-01  1.1708589708713694e-01  4.3576944872126266e-02  5.2574719853141641e-03  -2.0101851667838895e-03  -4.5401407401539237e-04  2.2003276493661760e-04  3.5771592598017979e-05  -3.9736452880349291e-05  2.8702348183754697e-06  6.3368677160998131e-06  -1.9697311440954503e-06  -1.1849664687732900e-06  1.1234229899620276e-06  -1.7721657603640848e-07  -3.3302608320009670e-07  1.1234881842282292e-07  -6.3918006018917426e-07  -1.9906466837275133e-06  -6.3262507754494905e-06  -1.1160158833633074e-05  -4.8294769305299059e-05  -6.0240785051382482e-05  -2.0876498179579517e-04  -2.6277565082499012e-04  5.0864442454392198e-04  -6.7490379196999250e-03  -1.0520178752769923e-02  1.3372998875590318e+00  0.0000000000000000e+00  1.0715870845853703e-01  1.4625857583683538e-01  1.0350304389997808e-01  3.8872203650907343e-02  4.9695188120668704e-03  -1.5918543501410101e-03  -3.9012139554839916e-04  1.6259881717280652e-04  2.6327375576097505e-05  -2.6151472752226950e-05  1.9491768516028599e-06  3.5187724769998036e-06  -1.1890526723693839e-06  -3.4243298744461830e-07  3.9945084097660228e-07  -1.5697386530488602e-07  9.7688877244368660e-09  7.5563058912058116e-08  1.5338570131806534e-07  3.3711326833940772e-07  3.2033882932993333e-06  1.6583832976943139e-06  2.5873614268467574e-05  1.3067485394887189e-05  1.5175876445777336e-04  -7.0111487812188952e-05  1.1391972944933793e-03  -2.5685138304215008e-03  -2.3964566592706297e-02  1.0493323287684382e+00  0.0000000000000000e+00  9.4691775110867835e-02  1.2887107492968319e-01  9.2456068912603384e-02  3.6254877517082403e-02  5.4867879011174644e-03  -1.1887289991784930e-03  -4.1962299444368243e-04  1.0865530681699969e-04  3.3108833621815202e-05  -1.6657795938740972e-05  -1.4233699981461935e-06  2.3098479016294208e-06  -1.9395625812230357e-07  -1.9342994846633441e-07  7.1877165387480627e-08  -3.1600165367106959e-08  9.5137660474882072e-09  1.0390674238454838e-08  -1.3176296533195530e-07  2.9271392285677623e-07  -2.1860250429438436e-06  2.3897803539700549e-06  -1.6464663105388778e-05  5.4596801909707641e-06  -7.5219285663714837e-05  -6.2850159744866149e-05  -4.5088922087183769e-06  1.2814766242893276e-04  -3.1475576329777911e-02  8.1058424597018708e-01  0.0000000000000000e+00  8.2554668924623459e-02  1.1284272910305045e-01  8.3198871326952098e-02  3.5000625660947374e-02  6.6135963455471137e-03  -7.1004555558260322e-04  -4.8778489435683116e-04  4.3725347035892203e-05  4.3514217886047553e-05  -6.5429902701971862e-06  -4.3515088150623358e-06  8.0714989077264302e-07  3.9695202976146861e-07  -2.0910982950451313e-09  3.4500932619524222e-09  2.0065990785076455e-09  -1.0822326820648872e-08  1.5759781401234157e-08  4.4215114263113519e-08  -2.7088411324572923e-07  1.3290850205669162e-06  -2.8936348572511875e-06  1.0596664793242485e-05  -1.2047271912895693e-05  5.2630019735808185e-05  -1.6028654488945238e-05  8.1185933620489203e-05  1.7972202302464350e-03  -3.0703714172624127e-02  6.1509934603833494e-01  0.0000000000000000e+00  7.0938702490454156e-02  9.8012863970233607e-02  7.5103192181402101e-02  3.4550842336509041e-02  8.2527984864467149e-03  -3.1394221803000498e-05  -5.3820627797654310e-04  -4.6888923771126273e-05  4.4361196629370519e-05  6.9501179950258454e-06  -4.0294736335981608e-06  -1.2109572079950408e-06  6.2601435885545149e-08  6.4896182278993435e-08  3.4815144270778509e-09  3.4593475372686569e-09  -2.8659363697020367e-08  1.0454963502515044e-07  -2.9652121682964376e-07  9.0167916576149141e-07  -2.6135021646550901e-06  6.0082509760511614e-06  -1.4701717883917405e-05  2.7366040351515107e-05  -6.7538163845723789e-05  1.1926016625243401e-04  -4.9170567124016127e-04  2.6360457356429468e-03  -2.8361329455406200e-02  4.5730561282280524e-01  0.0000000000000000e+00  5.9985135519785550e-02  8.4232041504030922e-02  6.7657192148988188e-02  3.4435807385267671e-02  1.0314661763437058e-02  9.8549472974388984e-04  -4.8173079129436975e-04  -1.6145438137948306e-04  1.7348772671638285e-05  1.8812391864870128e-05  2.1207929645439789e-06  -1.3309521149071018e-06  -6.9076617839751356e-07  -2.3079722496986860e-07  -8.5410721351385031e-08  -8.9220223473158222e-09  2.7843580691080427e-10  6.7564852983696078e-08  -1.8923303554262885e-08  -2.1489403320871956e-07  5.4433311743217006e-07  -1.6480031091233294e-06  2.9350092609182591e-06  -6.0928163705357062e-07  -9.5257781692144563e-06  8.8187085200931272e-05  -4.0440601602235435e-04  2.6952865361836277e-03  -2.3224480951645730e-02  3.3201530714938871e-01  0.0000000000000000e+00  4.9798565262744857e-02  7.1384414631777887e-02  6.0463197062226040e-02  3.4229232836378597e-02  1.2648880207024395e-02  2.4587248501150983e-03  -1.7771515250931063e-04  -2.5387711107688094e-04  -5.1017000387389844e-05  1.1634073125527566e-05  9.6891624373715132e-06  2.8373369888442761e-06  4.9683139503763888e-07  1.0550318924743426e-07  1.0961430815853764e-07  1.3601277290523452e-07  8.8567026548359922e-08  1.1243892439103125e-07  -4.2776954571388314e-07  7.8017354569558803e-07  -2.7042666220404953e-06  5.8713694534874855e-06  -1.2618650625611943e-05  2.7413575047332519e-05  -6.1099741895797311e-05  1.5488674569118997e-04  -5.3488087202701933e-04  2.4856825075115219e-03  -1.8401273437343057e-02  2.3442496681974348e-01  0.0000000000000000e+00  4.0457429898864423e-02  5.9400662176301529e-02  5.3239970501062384e-02  3.3535346134524996e-02  1.4997119765578970e-02  4.4239472132465325e-03  5.5145038161923371e-04  -2.0061050696454439e-04  -1.3440173919747645e-04  -3.3164114049683776e-05  7.1941016996368197e-07  4.6327277570289062e-06  2.8824464469222489e-06  1.4858855067313551e-06  7.5738114879033675e-07  3.1719487210401394e-07  -5.8569524175352989e-09  -3.3152117534384458e-07  -3.0308729889036455e-07  -7.7968753181390317e-07  6.7576322608345526e-07  -9.3050997240350542e-07  1.4829117846227877e-06  4.6385125421351904e-06  -2.1529849576052168e-05  9.5440494052919528e-05  -3.8821232020852178e-04  1.9510271733803597e-03  -1.3370184933333088e-02  1.6011540661139506e-01  0.0000000000000000e+00  3.2021457956614201e-02  4.8264099624672464e-02  4.5829842965125267e-02  3.2008441123827051e-02  1.6978468079657721e-02  6.7512840931543442e-03  1.8457060130152275e-03  2.0096765090465507e-04  -1.1524489766329975e-04  -8.8968745729259518e-05  -3.7760854210182763e-05  -1.2614939323327970e-05  -4.0265597572981769e-06  -1.7228939230840671e-06  -1.3091423630254374e-06  -1.3588899573962839e-06  -1.4280408884300448e-06  -1.2491796797880580e-06  -1.1164697543591208e-06  3.6966815859408253e-07  -8.7063317788631933e-07  4.6229481166411521e-06  -5.0418385636958206e-06  1.6512109025863564e-05  -3.3548661847160361e-05  9.6934617700798650e-05  -3.2864434842963454e-04  1.4514086651738795e-03  -9.2858670095219628e-03  1.0505171827773631e-01  0.0000000000000000e+00  2.4537145114498581e-02  3.8011410245512273e-02  3.8208110308120179e-02  2.9401174133212627e-02  1.8128409036328355e-02  9.0801668948306963e-03  3.6698139478613069e-03  1.1440581261375664e-03  2.2321560674020202e-04  -2.1743642780977582e-05  -5.2059622238505476e-05  -3.7344421374739253e-05  -2.2447961913294115e-05  -1.3424099590744753e-05  -8.4260832318905606e-06  -5.4230217631046576e-06  -3.2251378182298776e-06  -1.4035984797069550e-06  6.9378648521782207e-07  1.6600184215620974e-06  4.3212930907007162e-06  2.6844802168319775e-06  5.3509279848125068e-06  3.9424726863436872e-06  -8.1829873118356510e-06  4.8501939699876901e-05  -1.9714839346638419e-04  9.3661168378739417e-04  -5.9085366856558080e-03  6.5583270548027428e-02  0.0000000000000000e+00  1.8040481444793692e-02  2.8728095559336697e-02  3.0488786104859947e-02  2.5630212476985846e-02  1.8005252442081007e-02  1.0838085506400676e-02  5.6767897133975656e-03  2.6159542809036733e-03  1.0683374791518371e-03  3.8699148766450204e-04  1.2242572807053648e-04  3.1762178780874767e-05  5.2840737811340366e-06  1.5030936513073056e-08  9.5700286023209963e-07  3.4099341091324977e-06  5.9434183124162261e-06  8.2575864796542738e-06  9.6563009361633912e-06  1.1026975123614463e-05  9.8255013078289750e-06  1.0618307619520748e-05  5.3859831564925989e-06  9.4818927142465461e-06  -7.3341851670069576e-06  3.3831876309274705e-05  -1.2068765834209023e-04  5.5730004871292513e-04  -3.4807370071887720e-03  3.8443709127395899e-02  0.0000000000000000e+00  1.2558252548535213e-02  2.0538924871260394e-02  2.2920438170004651e-02  2.0838764535423538e-02  1.6352338215882459e-02  1.1401480388236910e-02  7.2087604923397287e-03  4.2101636094689990e-03  2.3165692195872231e-03  1.2288013246971609e-03  6.4588439482428470e-04  3.4742599863740915e-04  1.9786908903618913e-04  1.2280024914816312e-04  8.4125235609361324e-05  6.3129733102975662e-05  5.0692684785492764e-05  4.2166245363116776e-05  3.5657079154030106e-05  2.9091513946449302e-05  2.3972091140618670e-05  1.6781742081163866e-05  1.3343991060932347e-05  6.5556309145405092e-06  3.3969900557547990e-06  1.1658651915579319e-05  -5.1904584260450143e-05  2.7638559304279757e-04  -1.8142267613105679e-03  2.0750956696836770e-02  0.0000000000000000e+00  8.1065574911445698e-03  1.3591439663304918e-02  1.5863359806394129e-02  1.5426217902076243e-02  1.3262866743533696e-02  1.0384962283043952e-02  7.5536602120121121e-03  5.1887260389585467e-03  3.4195713136290018e-03  2.1970614473759854e-03  1.3985164949955596e-03  8.9560658492938321e-04  5.8456735354521635e-04  3.9243637201978550e-04  2.7194973426246816e-04  1.9418629499181976e-04  1.4183002283901826e-04  1.0497599549836038e-04  7.7418902642442558e-05  5.6689837514447610e-05  3.9504709632613759e-05  2.7305725279825042e-05  1.6282468294480445e-05  1.0277704592448863e-05  3.8559716466257268e-06  5.7268995045715347e-06  -1.8780502041400548e-05  1.1357693609114599e-04  -8.1087064629606245e-04  1.0007212913212177e-02  0.0000000000000000e+00  4.6862763764097815e-03  8.0323927823114944e-03  9.7431288307920014e-03  1.0016585142538292e-02  9.2625815857966202e-03  7.9293876520899319e-03  6.3966467464569784e-03  4.9269509991342435e-03  3.6636138339451799e-03  2.6560579312268728e-03  1.8941894767305712e-03  1.3391009749365316e-03  9.4411814773497679e