<?xml version="1.0"?>
<VTKFile type="UnstructuredGrid"  version="0.1"  >
<UnstructuredGrid>
<Piece  NumberOfPoints="961" NumberOfCells="1800">
<Points>
<DataArray  type="Float64"  NumberOfComponents="3"  format="ascii">-1 -1 0  -0.9333333333333333 -1 0  -0.8666666666666667 -1 0  -0.8 -1 0  -0.7333333333333334 -1 0  -0.6666666666666667 -1 0  -0.6 -1 0  -0.5333333333333333 -1 0  -0.4666666666666667 -1 0  -0.4 -1 0  -0.3333333333333334 -1 0  -0.2666666666666667 -1 0  -0.2 -1 0  -0.1333333333333333 -1 0  -0.06666666666666665 -1 0  0 -1 0  0.06666666666666665 -1 0  0.1333333333333333 -1 0  0.2 -1 0  0.2666666666666666 -1 0  0.3333333333333333 -1 0  0.3999999999999999 -1 0  0.4666666666666666 -1 0  0.5333333333333334 -1 0  0.6000000000000001 -1 0  0.6666666666666667 -1 0  0.7333333333333334 -1 0  0.8 -1 0  0.8666666666666667 -1 0  0.9333333333333333 -1 0  1 -1 0  -1 -0.9333333333333333 0  -0.9333333333333333 -0.9333333333333333 0  -0.8666666666666667 -0.9333333333333333 0  -0.8 -0.9333333333333333 0  -0.7333333333333334 -0.9333333333333333 0  -0.6666666666666667 -0.9333333333333333 0  -0.6 -0.9333333333333333 0  -0.5333333333333333 -0.9333333333333333 0  -0.4666666666666667 -0.9333333333333333 0  -0.4 -0.9333333333333333 0  -0.3333333333333334 -0.9333333333333333 0  -0.2666666666666667 -0.9333333333333333 0  -0.2 -0.9333333333333333 0  -0.1333333333333333 -0.9333333333333333 0  -0.06666666666666665 -0.9333333333333333 0  0 -0.9333333333333333 0  0.06666666666666665 -0.9333333333333333 0  0.1333333333333333 -0.9333333333333333 0  0.2 -0.9333333333333333 0  0.2666666666666666 -0.9333333333333333 0  0.3333333333333333 -0.9333333333333333 0  0.3999999999999999 -0.9333333333333333 0  0.4666666666666666 -0.9333333333333333 0  0.5333333333333334 -0.9333333333333333 0  0.6000000000000001 -0.9333333333333333 0  0.6666666666666667 -0.9333333333333333 0  0.7333333333333334 -0.9333333333333333 0  0.8 -0.9333333333333333 0  0.8666666666666667 -0.9333333333333333 0  0.9333333333333333 -0.9333333333333333 0  1 -0.9333333333333333 0  -1 -0.8666666666666667 0  -0.9333333333333333 -0.8666666666666667 0  -0.8666666666666667 -0.8666666666666667 0  -0.8 -0.8666666666666667 0  -0.7333333333333334 -0.8666666666666667 0  -0.6666666666666667 -0.8666666666666667 0  -0.6 -0.8666666666666667 0  -0.5333333333333333 -0.8666666666666667 0  -0.4666666666666667 -0.8666666666666667 0  -0.4 -0.8666666666666667 0  -0.3333333333333334 -0.8666666666666667 0  -0.2666666666666667 -0.8666666666666667 0  -0.2 -0.8666666666666667 0  -0.1333333333333333 -0.8666666666666667 0  -0.06666666666666665 -0.8666666666666667 0  0 -0.8666666666666667 0  0.06666666666666665 -0.8666666666666667 0  0.1333333333333333 -0.8666666666666667 0  0.2 -0.8666666666666667 0  0.2666666666666666 -0.8666666666666667 0  0.3333333333333333 -0.8666666666666667 0  0.3999999999999999 -0.8666666666666667 0  0.4666666666666666 -0.8666666666666667 0  0.5333333333333334 -0.8666666666666667 0  0.6000000000000001 -0.8666666666666667 0  0.6666666666666667 -0.8666666666666667 0  0.7333333333333334 -0.8666666666666667 0  0.8 -0.8666666666666667 0  0.8666666666666667 -0.8666666666666667 0  0.9333333333333333 -0.8666666666666667 0  1 -0.8666666666666667 0  -1 -0.8 0  -0.9333333333333333 -0.8 0  -0.8666666666666667 -0.8 0  -0.8 -0.8 0  -0.7333333333333334 -0.8 0  -0.6666666666666667 -0.8 0  -0.6 -0.8 0  -0.5333333333333333 -0.8 0  -0.4666666666666667 -0.8 0  -0.4 -0.8 0  -0.3333333333333334 -0.8 0  -0.2666666666666667 -0.8 0  -0.2 -0.8 0  -0.1333333333333333 -0.8 0  -0.06666666666666665 -0.8 0  0 -0.8 0  0.06666666666666665 -0.8 0  0.1333333333333333 -0.8 0  0.2 -0.8 0  0.2666666666666666 -0.8 0  0.3333333333333333 -0.8 0  0.3999999999999999 -0.8 0  0.4666666666666666 -0.8 0  0.5333333333333334 -0.8 0  0.6000000000000001 -0.8 0  0.6666666666666667 -0.8 0  0.7333333333333334 -0.8 0  0.8 -0.8 0  0.8666666666666667 -0.8 0  0.9333333333333333 -0.8 0  1 -0.8 0  -1 -0.7333333333333334 0  -0.9333333333333333 -0.7333333333333334 0  -0.8666666666666667 -0.7333333333333334 0  -0.8 -0.7333333333333334 0  -0.7333333333333334 -0.7333333333333334 0  -0.6666666666666667 -0.7333333333333334 0  -0.6 -0.7333333333333334 0  -0.5333333333333333 -0.7333333333333334 0  -0.4666666666666667 -0.7333333333333334 0  -0.4 -0.7333333333333334 0  -0.3333333333333334 -0.7333333333333334 0  -0.2666666666666667 -0.7333333333333334 0  -0.2 -0.7333333333333334 0  -0.1333333333333333 -0.7333333333333334 0  -0.06666666666666665 -0.7333333333333334 0  0 -0.7333333333333334 0  0.06666666666666665 -0.7333333333333334 0  0.1333333333333333 -0.7333333333333334 0  0.2 -0.7333333333333334 0  0.2666666666666666 -0.7333333333333334 0  0.3333333333333333 -0.7333333333333334 0  0.3999999999999999 -0.7333333333333334 0  0.4666666666666666 -0.7333333333333334 0  0.5333333333333334 -0.7333333333333334 0  0.6000000000000001 -0.7333333333333334 0  0.6666666666666667 -0.7333333333333334 0  0.7333333333333334 -0.7333333333333334 0  0.8 -0.7333333333333334 0  0.8666666666666667 -0.7333333333333334 0  0.9333333333333333 -0.7333333333333334 0  1 -0.7333333333333334 0  -1 -0.6666666666666667 0  -0.9333333333333333 -0.6666666666666667 0  -0.8666666666666667 -0.6666666666666667 0  -0.8 -0.6666666666666667 0  -0.7333333333333334 -0.6666666666666667 0  -0.6666666666666667 -0.6666666666666667 0  -0.6 -0.6666666666666667 0  -0.5333333333333333 -0.6666666666666667 0  -0.4666666666666667 -0.6666666666666667 0  -0.4 -0.6666666666666667 0  -0.3333333333333334 -0.6666666666666667 0  -0.2666666666666667 -0.6666666666666667 0  -0.2 -0.6666666666666667 0  -0.1333333333333333 -0.6666666666666667 0  -0.06666666666666665 -0.6666666666666667 0  0 -0.6666666666666667 0  0.06666666666666665 -0.6666666666666667 0  0.1333333333333333 -0.6666666666666667 0  0.2 -0.6666666666666667 0  0.2666666666666666 -0.6666666666666667 0  0.3333333333333333 -0.6666666666666667 0  0.3999999999999999 -0.6666666666666667 0  0.4666666666666666 -0.6666666666666667 0  0.5333333333333334 -0.6666666666666667 0  0.6000000000000001 -0.6666666666666667 0  0.6666666666666667 -0.6666666666666667 0  0.7333333333333334 -0.6666666666666667 0  0.8 -0.6666666666666667 0  0.8666666666666667 -0.6666666666666667 0  0.9333333333333333 -0.6666666666666667 0  1 -0.6666666666666667 0  -1 -0.6 0  -0.9333333333333333 -0.6 0  -0.8666666666666667 -0.6 0  -0.8 -0.6 0  -0.7333333333333334 -0.6 0  -0.6666666666666667 -0.6 0  -0.6 -0.6 0  -0.5333333333333333 -0.6 0  -0.4666666666666667 -0.6 0  -0.4 -0.6 0  -0.3333333333333334 -0.6 0  -0.2666666666666667 -0.6 0  -0.2 -0.6 0  -0.1333333333333333 -0.6 0  -0.06666666666666665 -0.6 0  0 -0.6 0  0.06666666666666665 -0.6 0  0.1333333333333333 -0.6 0  0.2 -0.6 0  0.2666666666666666 -0.6 0  0.3333333333333333 -0.6 0  0.3999999999999999 -0.6 0  0.4666666666666666 -0.6 0  0.5333333333333334 -0.6 0  0.6000000000000001 -0.6 0  0.6666666666666667 -0.6 0  0.7333333333333334 -0.6 0  0.8 -0.6 0  0.8666666666666667 -0.6 0  0.9333333333333333 -0.6 0  1 -0.6 0  -1 -0.5333333333333333 0  -0.9333333333333333 -0.5333333333333333 0  -0.8666666666666667 -0.5333333333333333 0  -0.8 -0.5333333333333333 0  -0.7333333333333334 -0.5333333333333333 0  -0.6666666666666667 -0.5333333333333333 0  -0.6 -0.5333333333333333 0  -0.5333333333333333 -0.5333333333333333 0  -0.4666666666666667 -0.5333333333333333 0  -0.4 -0.5333333333333333 0  -0.3333333333333334 -0.5333333333333333 0  -0.2666666666666667 -0.5333333333333333 0  -0.2 -0.5333333333333333 0  -0.1333333333333333 -0.5333333333333333 0  -0.06666666666666665 -0.5333333333333333 0  0 -0.5333333333333333 0  0.06666666666666665 -0.5333333333333333 0  0.1333333333333333 -0.5333333333333333 0  0.2 -0.5333333333333333 0  0.2666666666666666 -0.5333333333333333 0  0.3333333333333333 -0.5333333333333333 0  0.3999999999999999 -0.5333333333333333 0  0.4666666666666666 -0.5333333333333333 0  0.5333333333333334 -0.5333333333333333 0  0.6000000000000001 -0.5333333333333333 0  0.6666666666666667 -0.5333333333333333 0  0.7333333333333334 -0.5333333333333333 0  0.8 -0.5333333333333333 0  0.8666666666666667 -0.5333333333333333 0  0.9333333333333333 -0.5333333333333333 0  1 -0.5333333333333333 0  -1 -0.4666666666666667 0  -0.9333333333333333 -0.4666666666666667 0  -0.8666666666666667 -0.4666666666666667 0  -0.8 -0.4666666666666667 0  -0.7333333333333334 -0.4666666666666667 0  -0.6666666666666667 -0.4666666666666667 0  -0.6 -0.4666666666666667 0  -0.5333333333333333 -0.4666666666666667 0  -0.4666666666666667 -0.4666666666666667 0  -0.4 -0.4666666666666667 0  -0.3333333333333334 -0.4666666666666667 0  -0.2666666666666667 -0.4666666666666667 0  -0.2 -0.4666666666666667 0  -0.1333333333333333 -0.4666666666666667 0  -0.06666666666666665 -0.4666666666666667 0  0 -0.4666666666666667 0  0.06666666666666665 -0.4666666666666667 0  0.1333333333333333 -0.4666666666666667 0  0.2 -0.4666666666666667 0  0.2666666666666666 -0.4666666666666667 0  0.3333333333333333 -0.4666666666666667 0  0.3999999999999999 -0.4666666666666667 0  0.4666666666666666 -0.4666666666666667 0  0.5333333333333334 -0.4666666666666667 0  0.6000000000000001 -0.4666666666666667 0  0.6666666666666667 -0.4666666666666667 0  0.7333333333333334 -0.4666666666666667 0  0.8 -0.4666666666666667 0  0.8666666666666667 -0.4666666666666667 0  0.9333333333333333 -0.4666666666666667 0  1 -0.4666666666666667 0  -1 -0.4 0  -0.9333333333333333 -0.4 0  -0.8666666666666667 -0.4 0  -0.8 -0.4 0  -0.7333333333333334 -0.4 0  -0.6666666666666667 -0.4 0  -0.6 -0.4 0  -0.5333333333333333 -0.4 0  -0.4666666666666667 -0.4 0  -0.4 -0.4 0  -0.3333333333333334 -0.4 0  -0.2666666666666667 -0.4 0  -0.2 -0.4 0  -0.1333333333333333 -0.4 0  -0.06666666666666665 -0.4 0  0 -0.4 0  0.06666666666666665 -0.4 0  0.1333333333333333 -0.4 0  0.2 -0.4 0  0.2666666666666666 -0.4 0  0.3333333333333333 -0.4 0  0.3999999999999999 -0.4 0  0.4666666666666666 -0.4 0  0.5333333333333334 -0.4 0  0.6000000000000001 -0.4 0  0.6666666666666667 -0.4 0  0.7333333333333334 -0.4 0 
[...]
<PointData  Scalars="f_24"> 
<DataArray  type="Float64"  Name="f_24"  format="ascii">0.0000000000000000e+00  0.0000000000000000e+00  0.0000000000000000e+00  0.0000000000000000e+00  0.0000000000000000e+00  0.0000000000000000e+00  0.0000000000000000e+00  0.0000000000000000e+00  0.0000000000000000e+00  0.0000000000000000e+00  0.0000000000000000e+00  0.0000000000000000e+00  0.0000000000000000e+00  0.0000000000000000e+00  0.0000000000000000e+00  0.0000000000000000e+00  0.0000000000000000e+00  0.0000000000000000e+00  0.0000000000000000e+00  0.0000000000000000e+00  0.0000000000000000e+00  0.0000000000000000e+00  0.0000000000000000e+00  0.0000000000000000e+00  0.0000000000000000e+00  0.0000000000000000e+00  0.0000000000000000e+00  0.0000000000000000e+00  0.0000000000000000e+00  0.0000000000000000e+00  1.2840300767399656e+01  0.0000000000000000e+00  4.8311713039861225e-02  1.0792486406503038e-01  1.6658285268675740e-01  2.2171319871797904e-01  2.7385149277683485e-01  3.2368563011097606e-01  3.7194656249144697e-01  4.1939914129008399e-01  4.6685240392006044e-01  5.1518547496239986e-01  5.6537542233612781e-01  6.1853046913399179e-01  6.7593437592562322e-01  7.3910663943749011e-01  8.0988539125521652e-01  8.9054255678747840e-01  9.8394474445181335e-01  1.0937800373218254e+00  1.2248811625777700e+00  1.3836917598238572e+00  1.5789488939496990e+00  1.8226994776946142e+00  2.1318470097134559e+00  2.5305738721400903e+00  3.0542858403096482e+00  3.7563761750525271e+00  4.7207978681756781e+00  6.0872165901747550e+00  8.1123724475572878e+00  1.1211976255638513e+01  0.0000000000000000e+00  9.1666918260630628e-02  1.9969085534776213e-01  2.9496444384853382e-01  3.6939085553762591e-01  4.2372890952837466e-01  4.5992584268418107e-01  4.8076037419521317e-01  4.8917508508729757e-01  4.8797426727950799e-01  4.7966073229663264e-01  4.6636247483081705e-01  4.4983367579470690e-01  4.3149994093898486e-01  4.1252984761926237e-01  3.9392519409348414e-01  3.7662929950504032e-01  3.6166279416452751e-01  3.5030877922889475e-01  3.4438752591553345e-01  3.4669197563413567e-01  3.6170963076961510e-01  3.9685395247858235e-01  4.6460845569608289e-01  5.8633047307222208e-01  7.9916153541348478e-01  1.1690785863968480e+00  1.8169038177768897e+00  2.9771086712680574e+00  5.1464298716730319e+00  9.7436640845516092e+00  0.0000000000000000e+00  1.2814744218916013e-01  2.6780600436335639e-01  3.7025388790451652e-01  4.2333824374137946e-01  4.3413055127196876e-01  4.1300084501131595e-01  3.7126046983477945e-01  3.1858008167730872e-01  2.6232277657583430e-01  2.0750154108649105e-01  1.5714797710595799e-01  1.1281390793540098e-01  7.5041620637392364e-02  4.3746760821566748e-02  1.8500403792932239e-02  -1.2765364456882417e-03  -1.6181453209835616e-02  -2.6732621188845014e-02  -3.3271438031496535e-02  -3.5811204439519836e-02  -3.3732937499002129e-02  -2.5120444716444146e-02  -5.2892118602110268e-03  3.6449785777891541e-02  1.2385614565514938e-01  3.0915992075404986e-01  7.0771803399584365e-01  1.5786403890872447e+00  3.5568390550876621e+00  8.4245213334909153e+00  0.0000000000000000e+00  1.5675288442267762e-01  3.1094486743122390e-01  3.9623029066673637e-01  4.0417101119732496e-01  3.5866123171309305e-01  2.8572022460527735e-01  2.0710019852505274e-01  1.3633967614679404e-01  7.9861962791492686e-02  3.8993102336890476e-02  1.2184547259217906e-02  -3.3330040348956594e-03  -1.0528823229886394e-02  -1.2049553834446216e-02  -1.0027783940855078e-02  -6.0717798147238537e-03  -1.3385427505568674e-03  3.3653768304183116e-03  7.4838794253081547e-03  1.0626451118824877e-02  1.2519091781083404e-02  1.3062284940949275e-02  1.2742454712888507e-02  1.4147811454029971e-02  2.6685459974627582e-02  8.0046375203652140e-02  2.6015041782449216e-01  8.0841759968808369e-01  2.3976244643247191e+00  7.2440855351644764e+00  0.0000000000000000e+00  1.7729684769869708e-01  3.3189836709123210e-01  3.8619140916516709e-01  3.4548125528339962e-01  2.5763835486239728e-01  1.6324429175337019e-01  8.6673104900055378e-02  3.5403108248519478e-02  6.9743901377286276e-03  -5.1748569456778496e-03  -7.7147151248615087e-03  -5.7606886470488112e-03  -2.5670104663552554e-03  1.4125007278894470e-04  1.6744013235317377e-03  1.9492063320383720e-03  1.1834287586264683e-03  -2.9379556810645664e-04  -2.1479499679568775e-03  -4.0968982195292870e-03  -5.9545106154461503e-03  -7.6948431286596132e-03  -9.5437049158002725e-03  -1.1863129811291747e-02  -1.3536499443447730e-02  -3.9412284481877211e-03  6.7917966584607622e-02  3.9244169097650455e-01  1.6360586468422995e+00  6.1922746756364093e+00  0.0000000000000000e+00  1.9023095012458122e-01  3.3545001816201292e-01  3.5501484856157406e-01  2.7531710875040694e-01  1.6781776677863192e-01  7.8921928442368866e-02  2.4825878666886857e-02  4.2125906099202095e-04  -5.9469464013542032e-03  -4.5854972865795362e-03  -1.6066714653567976e-03  4.2965087571773813e-04  1.0867524533340791e-03  8.0873151255337879e-04  1.9921663876523095e-04  -2.8448215920406786e-04  -4.0106339144592044e-04  -8.9477967790699424e-05  5.9426447748495300e-04  1.5350550938162256e-03  2.6000901354526502e-03  3.6484221882794885e-03  4.4523357460970053e-03  4.3857518960962096e-03  2.0404769102222017e-03  -2.4067842021759964e-03  1.1918732722701929e-02  1.7888975443776572e-01  1.0900480192568658e+00  5.2593871943268997e+00  0.0000000000000000e+00  1.9642441897933235e-01  3.2673047782033021e-01  3.1479076828614716e-01  2.1035681211940574e-01  1.0199156473618523e-01  3.1724011433023537e-02  1.4711285373620036e-03  -5.1528316610162661e-03  -3.0998633714699976e-03  -4.1490023922842613e-04  6.9439988592421675e-04  5.8286008652934048e-04  1.1518949753041954e-04  -1.8923438411712486e-04  -2.1538218916902674e-04  -7.6803806100405193e-05  5.5137906149144717e-05  4.7947677313808155e-05  -1.6128066938376668e-04  -5.7025046572180152e-04  -1.1275749968788391e-03  -1.7397379034173163e-03  -2.2720337552794298e-03  -2.6492533087643308e-03  -3.5711716821897272e-03  -7.7077601861493972e-03  -1.1989159521118533e-02  6.0759582437000803e-02  7.1228558244623086e-01  4.4361019840122049e+00  0.0000000000000000e+00  1.9695361302987904e-01  3.1025088450910854e-01  2.7356542173323922e-01  1.5756356098554272e-01  5.9180681268960235e-02  9.3244129643649601e-03  -4.1058416891838791e-03  -3.1040066188243120e-03  -3.4262114676336192e-04  5.8065614033780478e-04  3.3830133210980922e-04  -3.7180574524166346e-05  -1.4001157024957648e-04  -5.6172196935186376e-05  4.0757801784820357e-05  6.3610667750058897e-05  2.8193178295072749e-05  1.1110541421630641e-06  4.9092697054243262e-05  2.1138152526893481e-04  4.9140237062849409e-04  8.5888904776141813e-04  1.2843740180086788e-03  1.8039382196394357e-03  2.3938842839257134e-03  1.0867859927381428e-03  -7.2110709844461357e-03  1.2221932294086439e-02  4.5216490482029409e-01  3.7134783908246605e+00  0.0000000000000000e+00  1.9293699710888104e-01  2.8951137557976303e-01  2.3580203474716768e-01  1.1796407474477515e-01  3.3546090155352308e-02  3.3169879110714378e-04  -3.7647427676328056e-03  -9.8561010895101622e-04  4.5856993088781923e-04  3.0429406665298406e-04  -3.3146385442523084e-05  -9.9153003600880273e-05  -1.4957777522185868e-05  3.2602541746455419e-05  1.7829659462636559e-05  -1.3335333816895797e-05  -2.3006598217022335e-05  -1.4966845525262446e-05  -2.1255499408946295e-05  -7.8429145525748642e-05  -2.1059257096043375e-04  -4.2142764611769493e-04  -7.1316455960094920e-04  -1.0215165073219476e-03  -1.1111235521801422e-03  -1.2153183793618689e-03  -7.3573000780103922e-03  -1.3114680542486008e-02  2.6857298981000599e-01  3.0829562142526568e+00  0.0000000000000000e+00  1.8542619720413694e-01  2.6697627328535256e-01  2.0341513386340648e-01  8.9846060962804758e-02  1.9126354528792834e-02  -2.5009503137625550e-03  -2.3691513570212575e-03  4.1092853577559387e-06  3.9713459479964459e-04  2.7717210564851582e-05  -8.1142406137150552e-05  -1.8115794202385401e-05  2.4619708748174644e-05  7.9736822364468200e-06  -8.2594204111050665e-06  -4.8943436405386738e-06  6.4343508516069934e-06  1.0838255176891594e-05  1.2369202207033608e-05  3.0054279670084350e-05  8.7282904039291245e-05  1.9826335931988814e-04  3.7313676539962751e-04  5.4510110082090467e-04  8.4738584032084316e-04  1.5392305475396156e-03  -7.2933702528945005e-04  -1.6227349015992057e-02  1.5091797605610313e-01  2.5363557071406739e+00  0.0000000000000000e+00  1.7534710374357534e-01  2.4422884693079530e-01  1.7676297202708594e-01  7.0712204459670414e-02  1.1460200334115872e-02  -2.9284785136671444e-03  -1.3116097498323573e-03  2.8360144380317110e-04  2.0475604304705678e-04  -6.0774777084897675e-05  -3.5531626228513424e-05  1.3613732052598041e-05  1.0531107781220370e-05  -5.9986065286555709e-06  -2.8822533974132697e-06  2.3034097149824105e-06  9.2051896240004792e-07  -3.9283359485103497e-06  -6.8727616648929061e-06  -1.2459516545684280e-05  -3.5193321291269299e-05  -8.6949649848410215e-05  -1.8665701310299467e-04  -3.0707190172504241e-04  -5.8325105568929575e-04  -2.7500656497862042e-04  -8.9989928194328752e-04  -1.6168373383177514e-02  6.8067297649991532e-02  2.0658775756892473e+00  0.0000000000000000e+00  1.6347809198944085e-01  2.2218159802336013e-01  1.5538135726975599e-01  5.8215491174393091e-02  7.6868827504533227e-03  -2.6092484984786410e-03  -7.3444845394005759e-04  2.9019156059927520e-04  8.5058709830640146e-05  -6.0018032954803593e-05  -4.9541677969690078e-06  1.2084776572804354e-05  -3.5491528748512818e-08  -4.0672446337879797e-06  1.4042682598773440e-06  9.7787147303529137e-07  -6.5026509364148976e-07  2.6587461678212645e-07  2.8195479450709831e-06  5.3865206065324716e-06  1.4329075024238213e-05  3.4250306259221717e-05  9.3102255547627985e-05  1.5932522316122250e-04  2.9295515585736831e-04  3.8286958938105875e-04  1.7657262138863696e-03  -1.0786142791644436e-02  2.1242365437677064e-02  1.6641029794549953e+00  0.0000000000000000e+00  1.5045202246563244e-01  2.0127646356010165e-01  1.3844860484886340e-01  5.0478569798430170e-02  6.1528000772812378e-03  -2.1571097182922754e-03  -4.8860245805941959e-04  2.3290658839739272e-04  3.7143266300270789e-05  -4.1976312613576673e-05  3.5389403271003924e-06  6.3449011733336640e-06  -1.9946920272901381e-06  -1.2464128069631636e-06  1.1907761763833721e-06  -2.0984881224445190e-07  -3.2392490312625254e-07  1.0869055495232883e-07  -6.4349608054049356e-07  -2.0007743398669134e-06  -6.3100180475105606e-06  -1.1153926816558099e-05  -4.7924147184401335e-05  -5.9849761561277950e-05  -2.0672362265562567e-04  -2.6039120321291390e-04  5.0381222865815097e-04  -6.6820506666275510e-03  -1.0414864637615770e-02  1.3239935313506008e+00  0.0000000000000000e+00  1.3677130285324809e-01  1.8164883012515767e-01  1.2504534414825913e-01  4.6111027799772115e-02  5.9859943365935409e-03  -1.7287881618675283e-03  -4.3226960077966602e-04  1.7488699940467904e-04  2.8243049282112147e-05  -2.8152801984974301e-05  2.3238588319689563e-06  3.6451913143039530e-06  -1.2327163861600784e-06  -3.8569269354719624e-07  4.2835729666141631e-07  -1.6776454107706602e-07  1.3643342184126192e-08  7.6014644672014740e-08  1.5569493972587167e-07  3.4285253449076899e-07  3.1791395337228972e-06  1.6856169550803936e-06  2.5684514173898344e-05  1.3171183501182587e-05  1.5042828117142810e-04  -6.9031122862419237e-05  1.1278760962180087e-03  -2.5427105198077842e-03  -2.3726489773738792e-02  1.0388912976448195e+00  0.0000000000000000e+00  1.2282851764416085e-01  1.6325102567250166e-01  1.1428132524101117e-01  4.4109753751165819e-02  6.7763586034872998e-03  -1.2940570740414502e-03  -4.7811597970954877e-04  1.1828302181340309e-04  3.6840622862376212e-05  -1.8345751076481440e-05  -1.5424702851052097e-06  2.5325647296697650e-06  -1.7951477399382680e-07  -2.2254029343928940e-07  7.5006076339921946e-08  -3.3718777761556309e-08  9.7853396317575386e-09  1.1434997952013981e-08  -1.2886726570361502e-07  2.7815832062345939e-07  -2.1925706123702822e-06  2.3104688386143449e-06  -1.6304508591547554e-05  5.3845174555371182e-06  -7.4359517976755059e-05  -6.2274110416012929e-05  -4.3554571734001371e-06  1.2672298568432278e-04  -3.1162192358345588e-02  8.0251879796247849e-01  0.0000000000000000e+00  1.0892808289488769e-01  1.4594060414975357e-01  1.0534652000767454e-01  4.3733114388428633e-02  8.3637500654568740e-03  -7.3776696093541170e-04  -5.6881751888606725e-04  4.5365074195845828e-05  4.9816982952264802e-05  -7.1831418942331708e-06  -5.0414642321236386e-06  8.8357302864774451e-07  4.8984591043513305e-07  1.5192915338382719e-08  5.9114850344075370e-09  3.5820203294016759e-10  -1.0989588218228705e-08  2.1132087532800636e-08  4.7902740374236837e-08  -2.8129747963014161e-07  1.2744191307209125e-06  -2.8732871589026033e-06  1.0561233255056735e-05  -1.1639337425256578e-05  5.2468328141608110e-05  -1.5384575591024117e-05  8.0645962012376482e-05  1.7796005852157017e-03  -3.0398217779606079e-02  6.0897900528447557e-01  0.0000000000000000e+00  9.5306299937874733e-02  1.2954161240265716e-01  9.7525490439968721e-02  4.4386536280404142e-02  1.0697461295492348e-02  1.0989475966701232e-04  -6.3737053782526463e-04  -6.3011608507726965e-05  5.1484022009769350e-05  8.7889270241579441e-06  -4.7037013895693377e-06  -1.5549740635253332e-06  2.8378853519555271e-08  6.9238726048735669e-08  -3.2914982509196320e-09  -3.8259323242245580e-09  -2.3238539607652466e-08  1.1949650494771033e-07  -2.9194057097585947e-07  8.4599628841600055e-07  -2.6644501172615708e-06  5.9162966140989159e-06  -1.4385480366612400e-05  2.7462719467776285e-05  -6.6337630389244208e-05  1.1846047631395218e-04  -4.8659369411739573e-04  2.6097948668367082e-03  -2.8079184039013168e-02  4.5275534594777977e-01  0.0000000000000000e+00  8.2148850095464493e-02  1.1388657947902608e-01  9.0199394567652511e-02  4.5533115097600774e-02  1.3730960176181677e-02  1.4578400559352985e-03  -5.6457943354332879e-04  -2.0619305224110467e-04  1.7569382804544052e-05  2.3313893646727885e-05  3.1041285750309163e-06  -1.5761372570900159e-06  -9.2918632790819962e-07  -3.4541641734118562e-07  -1.3008722777061866e-07  -4.8071138705314288e-09  3.7577486894972506e-08  9.6206500466768314e-08  -5.6754612017186315e-08  -3.3724759421626370e-07  4.0775190495728361e-07  -1.5647850872081182e-06  3.3369067471660182e-06  2.3054196088493877e-07  -8.4497991683081780e-06  8.8166347368173799e-05  -3.9983939542863458e-04  2.6687268384543699e-03  -2.2993222177147141e-02  3.2871169964543123e-01  0.0000000000000000e+00  6.9605115146075286e-02  9.8845312135544081e-02  8.2849519016364656e-02  4.6635463739234752e-02  1.7329885037757484e-02  3.5154524473195001e-03  -1.4492550254232022e-04  -3.2237123067344015e-04  -7.1993113502872303e-05  1.2701062014122774e-05  1.2687513045584475e-05  4.1561264386749407e-06  9.1867712049358198e-07  2.8532044316364574e-07  2.5888256861675587e-07  2.8053899333842433e-07  1.7923550579453539e-07  7.1273342819223468e-08  -6.3029009736832041e-07  4.8951979615718756e-07  -2.7790119906998682e-06  6.2043486262629877e-06  -1.1431868864322915e-05  2.8698786530303102e-05  -5.8888288739688079e-05  1.5454183702735274e-04  -5.2899261184598235e-04  2.4611176851803726e-03  -1.8218306785542576e-02  2.3209239942654128e-01  0.0000000000000000e+00  5.7799795606517983e-02  8.4344772754435568e-02  7.5069494720393759e-02  4.7134900430781425e-02  2.1191155372361343e-02  6.4058347224340848e-03  9.0803690176941574e-04  -2.3099832113634329e-04  -1.8166683322979316e-04  -5.0051887781573203e-05  -1.5104254080989290e-06  5.7969824305383332e-06  4.0807370784532632e-06  2.2595642020742419e-06  1.1760854443235422e-06  4.2235208091925780e-07  -2.2065089866670168e-07  -8.2847311004684130e-07  -9.0517845199704100e-07  -1.1148399102021229e-06  1.0494923936097059e-06  5.1497857480796634e-07  3.9023374829086759e-06  7.4984622616333702e-06  -1.8667572517656475e-05  9.6287410391791955e-05  -3.8339882762284289e-04  1.9319077163926549e-03  -1.3236948691210651e-02  1.5852223169629212e-01  0.0000000000000000e+00  4.6841672737913828e-02  7.0382313996432411e-02  6.6587745842007121e-02  4.6474545155334966e-02  2.4793079951095164e-02  1.0029921573910822e-02  2.8672404675738022e-03  3.9092777554392807e-04  -1.3369603203066614e-04  -1.2478303691781933e-04  -5.8069786703055933e-05  -2.1643992782353148e-05  -8.0453318109156967e-06  -3.9704569959442354e-06  -3.0803731614737130e-06  -3.0831877431966091e-06  -3.1197091366886235e-06  -2.6407780413214643e-06  -1.7217186095607170e-06  1.0980338993266853e-06  1.6068023724553039e-06  8.7224989727005471e-06  1.7962743196656952e-07  2.1501633509219933e-05  -2.9129591840016528e-05  9.8535039607887138e-05  -3.2426104657784732e-04  1.4373207303156655e-03  -9.1935559698861826e-03  1.0400643621593728e-01  0.0000000000000000e+00  3.6830064163245191e-02  5.7033743121826075e-02  5.7297855828560486e-02  4.4169982238440458e-02  2.7414632433816397e-02  1.3927200399274317e-02  5.7807006150843018e-03  1.8994351969486665e-03  4.2963096456660272e-04  5.7095414158419416e-06  -6.7097690640625986e-05  -5.5404886836182689e-05  -3.5985658027511259e-05  -2.2757889159919984e-05  -1.4774403963668925e-05  -9.4720610767629659e-06  -5.0882037033986639e-06  -8.4002295782638690e-07  3.9982451292311432e-06  7.8104805165592951e-06  1.2903424369309797e-05  1.2725628708759110e-05  1.5348712451336445e-05  1.2424451106025530e-05  -2.0480893961883890e-06  5.1430955344982546e-05  -1.9369038647637247e-04  9.2767701725202675e-04  -5.8495976902615552e-03  6.4930706102801272e-02  0.0000000000000000e+00  2.7859546429952788e-02  4.4455393655427888e-02  4.7289678909425932e-02  3.9920448163713824e-02  2.8262573642886361e-02  1.7234917374923608e-02  9.2115378484493200e-03  4.3755318972615604e-03  1.8704020557922217e-03  7.2793752610144692e-04  2.6087607599515434e-04  8.7752040112803618e-05  2.9964166731549103e-05  1.4027303340287167e-05  1.2500703392161926e-05  1.5846284350736334e-05  2.0708090110175227e-05  2.5843807843189963e-05  2.9867866413526888e-05  3.2992887927701727e-05  3.2094732765181244e-05  3.1339805120750044e-05  2.2840402761147538e-05  2.2415968875614064e-05  1.0331452206435664e-06  3.7862561734374312e-05  -1.1777584743884200e-04  5.5223349266213695e-04  -3.4461122327666548e-03  3.8061187830279689e-02  0.0000000000000000e+00  2.0020914236698422e-02  3.2880014635529906e-02  3.6871107489222843e-02  3.3738095178522172e-02  2.6715991267201884e-02  1.8867218979730614e-02  1.2139438899283258e-02  7.2556610131453841e-03  4.1125068340757947e-03  2.2634640238394657e-03  1.2435928082147499e-03  7.0359997683314167e-04  4.2289599003448951e-04  2.7666859766248291e-04  1.9881813663072845e-04  1.5553316964295961e-04  1.2953693327594296e-04  1.1164378434275465e-04  9.7328720790119106e-05  8.3011490887333517e-05  6.9449935330730028e-05  5.3078168087469801e-05  4.0161037773348127e-05  2.4480109142495615e-05  1.3897546664214914e-05  1.6676375765704073e-05  -4.9423176582068985e-05  2.7411034888928139e-04  -1.7960858238641904e-03  2.0544481227839431e-02  0.0000000000000000e+00  1.3403713011918554e-02  2.2603836551429703e-02  2.6567084791173021e-02  2.6052247654074795e-02  2.2632551446857632e-02  1.7954042109604555e-02  1.3273009454547161e-02  9.3006019779343762e-03  6.2771844061679160e-03  4.1467261791846158e-03  2.7241333148209724e-03  1.8061665459297546e-03  1.2234522980381795e-03  8.5356497322388832e-04  6.1506249107028295e-04  4.5662255651136781e-04  3.4670082738209206e-04  2.6654328995629617e-04  2.0457518292502994e-04  1.5521507909401085e-04  1.1358009182905039e-04  8.0472668090298305e-05  5.2050405136146295e-05  3.2312439953342608e-05  1.5917358207706776e-05  1.1296468044484490e-05  -1.6556103462041515e-05  1.1295758810702937e-04  -8.0276668839239355e-04  9.9076394810182437e-03  0.0000000000000000e+00  8.0861150103968653e-03  1.3959991435264014e-02  1.7079963679925387e-02  1.7734757652767909e-02  1.6589303450854714e-02  1.4392827786091784e-02  1.1793090397388829e-02  9.2488657950006350e-03  7.0207646543931600e-03  5.2097171097479338e-03  3.8123344141680199e-03  2.7717526044544662e-03  2.0136736655924367e-03  1