<?xml version="1.0"?>
<VTKFile type="UnstructuredGrid"  version="0.1"  >
<UnstructuredGrid>
<Piece  NumberOfPoints="961" NumberOfCells="1800">
<Points>
<DataArray  type="Float64"  NumberOfComponents="3"  format="ascii">-1 -1 0  -0.9333333333333333 -1 0  -0.8666666666666667 -1 0  -0.8 -1 0  -0.7333333333333334 -1 0  -0.6666666666666667 -1 0  -0.6 -1 0  -0.5333333333333333 -1 0  -0.4666666666666667 -1 0  -0.4 -1 0  -0.3333333333333334 -1 0  -0.2666666666666667 -1 0  -0.2 -1 0  -0.1333333333333333 -1 0  -0.06666666666666665 -1 0  0 -1 0  0.06666666666666665 -1 0  0.1333333333333333 -1 0  0.2 -1 0  0.2666666666666666 -1 0  0.3333333333333333 -1 0  0.3999999999999999 -1 0  0.4666666666666666 -1 0  0.5333333333333334 -1 0  0.6000000000000001 -1 0  0.6666666666666667 -1 0  0.7333333333333334 -1 0  0.8 -1 0  0.8666666666666667 -1 0  0.9333333333333333 -1 0  1 -1 0  -1 -0.9333333333333333 0  -0.9333333333333333 -0.9333333333333333 0  -0.8666666666666667 -0.9333333333333333 0  -0.8 -0.9333333333333333 0  -0.7333333333333334 -0.9333333333333333 0  -0.6666666666666667 -0.9333333333333333 0  -0.6 -0.9333333333333333 0  -0.5333333333333333 -0.9333333333333333 0  -0.4666666666666667 -0.9333333333333333 0  -0.4 -0.9333333333333333 0  -0.3333333333333334 -0.9333333333333333 0  -0.2666666666666667 -0.9333333333333333 0  -0.2 -0.9333333333333333 0  -0.1333333333333333 -0.9333333333333333 0  -0.06666666666666665 -0.9333333333333333 0  0 -0.9333333333333333 0  0.06666666666666665 -0.9333333333333333 0  0.1333333333333333 -0.9333333333333333 0  0.2 -0.9333333333333333 0  0.2666666666666666 -0.9333333333333333 0  0.3333333333333333 -0.9333333333333333 0  0.3999999999999999 -0.9333333333333333 0  0.4666666666666666 -0.9333333333333333 0  0.5333333333333334 -0.9333333333333333 0  0.6000000000000001 -0.9333333333333333 0  0.6666666666666667 -0.9333333333333333 0  0.7333333333333334 -0.9333333333333333 0  0.8 -0.9333333333333333 0  0.8666666666666667 -0.9333333333333333 0  0.9333333333333333 -0.9333333333333333 0  1 -0.9333333333333333 0  -1 -0.8666666666666667 0  -0.9333333333333333 -0.8666666666666667 0  -0.8666666666666667 -0.8666666666666667 0  -0.8 -0.8666666666666667 0  -0.7333333333333334 -0.8666666666666667 0  -0.6666666666666667 -0.8666666666666667 0  -0.6 -0.8666666666666667 0  -0.5333333333333333 -0.8666666666666667 0  -0.4666666666666667 -0.8666666666666667 0  -0.4 -0.8666666666666667 0  -0.3333333333333334 -0.8666666666666667 0  -0.2666666666666667 -0.8666666666666667 0  -0.2 -0.8666666666666667 0  -0.1333333333333333 -0.8666666666666667 0  -0.06666666666666665 -0.8666666666666667 0  0 -0.8666666666666667 0  0.06666666666666665 -0.8666666666666667 0  0.1333333333333333 -0.8666666666666667 0  0.2 -0.8666666666666667 0  0.2666666666666666 -0.8666666666666667 0  0.3333333333333333 -0.8666666666666667 0  0.3999999999999999 -0.8666666666666667 0  0.4666666666666666 -0.8666666666666667 0  0.5333333333333334 -0.8666666666666667 0  0.6000000000000001 -0.8666666666666667 0  0.6666666666666667 -0.8666666666666667 0  0.7333333333333334 -0.8666666666666667 0  0.8 -0.8666666666666667 0  0.8666666666666667 -0.8666666666666667 0  0.9333333333333333 -0.8666666666666667 0  1 -0.8666666666666667 0  -1 -0.8 0  -0.9333333333333333 -0.8 0  -0.8666666666666667 -0.8 0  -0.8 -0.8 0  -0.7333333333333334 -0.8 0  -0.6666666666666667 -0.8 0  -0.6 -0.8 0  -0.5333333333333333 -0.8 0  -0.4666666666666667 -0.8 0  -0.4 -0.8 0  -0.3333333333333334 -0.8 0  -0.2666666666666667 -0.8 0  -0.2 -0.8 0  -0.1333333333333333 -0.8 0  -0.06666666666666665 -0.8 0  0 -0.8 0  0.06666666666666665 -0.8 0  0.1333333333333333 -0.8 0  0.2 -0.8 0  0.2666666666666666 -0.8 0  0.3333333333333333 -0.8 0  0.3999999999999999 -0.8 0  0.4666666666666666 -0.8 0  0.5333333333333334 -0.8 0  0.6000000000000001 -0.8 0  0.6666666666666667 -0.8 0  0.7333333333333334 -0.8 0  0.8 -0.8 0  0.8666666666666667 -0.8 0  0.9333333333333333 -0.8 0  1 -0.8 0  -1 -0.7333333333333334 0  -0.9333333333333333 -0.7333333333333334 0  -0.8666666666666667 -0.7333333333333334 0  -0.8 -0.7333333333333334 0  -0.7333333333333334 -0.7333333333333334 0  -0.6666666666666667 -0.7333333333333334 0  -0.6 -0.7333333333333334 0  -0.5333333333333333 -0.7333333333333334 0  -0.4666666666666667 -0.7333333333333334 0  -0.4 -0.7333333333333334 0  -0.3333333333333334 -0.7333333333333334 0  -0.2666666666666667 -0.7333333333333334 0  -0.2 -0.7333333333333334 0  -0.1333333333333333 -0.7333333333333334 0  -0.06666666666666665 -0.7333333333333334 0  0 -0.7333333333333334 0  0.06666666666666665 -0.7333333333333334 0  0.1333333333333333 -0.7333333333333334 0  0.2 -0.7333333333333334 0  0.2666666666666666 -0.7333333333333334 0  0.3333333333333333 -0.7333333333333334 0  0.3999999999999999 -0.7333333333333334 0  0.4666666666666666 -0.7333333333333334 0  0.5333333333333334 -0.7333333333333334 0  0.6000000000000001 -0.7333333333333334 0  0.6666666666666667 -0.7333333333333334 0  0.7333333333333334 -0.7333333333333334 0  0.8 -0.7333333333333334 0  0.8666666666666667 -0.7333333333333334 0  0.9333333333333333 -0.7333333333333334 0  1 -0.7333333333333334 0  -1 -0.6666666666666667 0  -0.9333333333333333 -0.6666666666666667 0  -0.8666666666666667 -0.6666666666666667 0  -0.8 -0.6666666666666667 0  -0.7333333333333334 -0.6666666666666667 0  -0.6666666666666667 -0.6666666666666667 0  -0.6 -0.6666666666666667 0  -0.5333333333333333 -0.6666666666666667 0  -0.4666666666666667 -0.6666666666666667 0  -0.4 -0.6666666666666667 0  -0.3333333333333334 -0.6666666666666667 0  -0.2666666666666667 -0.6666666666666667 0  -0.2 -0.6666666666666667 0  -0.1333333333333333 -0.6666666666666667 0  -0.06666666666666665 -0.6666666666666667 0  0 -0.6666666666666667 0  0.06666666666666665 -0.6666666666666667 0  0.1333333333333333 -0.6666666666666667 0  0.2 -0.6666666666666667 0  0.2666666666666666 -0.6666666666666667 0  0.3333333333333333 -0.6666666666666667 0  0.3999999999999999 -0.6666666666666667 0  0.4666666666666666 -0.6666666666666667 0  0.5333333333333334 -0.6666666666666667 0  0.6000000000000001 -0.6666666666666667 0  0.6666666666666667 -0.6666666666666667 0  0.7333333333333334 -0.6666666666666667 0  0.8 -0.6666666666666667 0  0.8666666666666667 -0.6666666666666667 0  0.9333333333333333 -0.6666666666666667 0  1 -0.6666666666666667 0  -1 -0.6 0  -0.9333333333333333 -0.6 0  -0.8666666666666667 -0.6 0  -0.8 -0.6 0  -0.7333333333333334 -0.6 0  -0.6666666666666667 -0.6 0  -0.6 -0.6 0  -0.5333333333333333 -0.6 0  -0.4666666666666667 -0.6 0  -0.4 -0.6 0  -0.3333333333333334 -0.6 0  -0.2666666666666667 -0.6 0  -0.2 -0.6 0  -0.1333333333333333 -0.6 0  -0.06666666666666665 -0.6 0  0 -0.6 0  0.06666666666666665 -0.6 0  0.1333333333333333 -0.6 0  0.2 -0.6 0  0.2666666666666666 -0.6 0  0.3333333333333333 -0.6 0  0.3999999999999999 -0.6 0  0.4666666666666666 -0.6 0  0.5333333333333334 -0.6 0  0.6000000000000001 -0.6 0  0.6666666666666667 -0.6 0  0.7333333333333334 -0.6 0  0.8 -0.6 0  0.8666666666666667 -0.6 0  0.9333333333333333 -0.6 0  1 -0.6 0  -1 -0.5333333333333333 0  -0.9333333333333333 -0.5333333333333333 0  -0.8666666666666667 -0.5333333333333333 0  -0.8 -0.5333333333333333 0  -0.7333333333333334 -0.5333333333333333 0  -0.6666666666666667 -0.5333333333333333 0  -0.6 -0.5333333333333333 0  -0.5333333333333333 -0.5333333333333333 0  -0.4666666666666667 -0.5333333333333333 0  -0.4 -0.5333333333333333 0  -0.3333333333333334 -0.5333333333333333 0  -0.2666666666666667 -0.5333333333333333 0  -0.2 -0.5333333333333333 0  -0.1333333333333333 -0.5333333333333333 0  -0.06666666666666665 -0.5333333333333333 0  0 -0.5333333333333333 0  0.06666666666666665 -0.5333333333333333 0  0.1333333333333333 -0.5333333333333333 0  0.2 -0.5333333333333333 0  0.2666666666666666 -0.5333333333333333 0  0.3333333333333333 -0.5333333333333333 0  0.3999999999999999 -0.5333333333333333 0  0.4666666666666666 -0.5333333333333333 0  0.5333333333333334 -0.5333333333333333 0  0.6000000000000001 -0.5333333333333333 0  0.6666666666666667 -0.5333333333333333 0  0.7333333333333334 -0.5333333333333333 0  0.8 -0.5333333333333333 0  0.8666666666666667 -0.5333333333333333 0  0.9333333333333333 -0.5333333333333333 0  1 -0.5333333333333333 0  -1 -0.4666666666666667 0  -0.9333333333333333 -0.4666666666666667 0  -0.8666666666666667 -0.4666666666666667 0  -0.8 -0.4666666666666667 0  -0.7333333333333334 -0.4666666666666667 0  -0.6666666666666667 -0.4666666666666667 0  -0.6 -0.4666666666666667 0  -0.5333333333333333 -0.4666666666666667 0  -0.4666666666666667 -0.4666666666666667 0  -0.4 -0.4666666666666667 0  -0.3333333333333334 -0.4666666666666667 0  -0.2666666666666667 -0.4666666666666667 0  -0.2 -0.4666666666666667 0  -0.1333333333333333 -0.4666666666666667 0  -0.06666666666666665 -0.4666666666666667 0  0 -0.4666666666666667 0  0.06666666666666665 -0.4666666666666667 0  0.1333333333333333 -0.4666666666666667 0  0.2 -0.4666666666666667 0  0.2666666666666666 -0.4666666666666667 0  0.3333333333333333 -0.4666666666666667 0  0.3999999999999999 -0.4666666666666667 0  0.4666666666666666 -0.4666666666666667 0  0.5333333333333334 -0.4666666666666667 0  0.6000000000000001 -0.4666666666666667 0  0.6666666666666667 -0.4666666666666667 0  0.7333333333333334 -0.4666666666666667 0  0.8 -0.4666666666666667 0  0.8666666666666667 -0.4666666666666667 0  0.9333333333333333 -0.4666666666666667 0  1 -0.4666666666666667 0  -1 -0.4 0  -0.9333333333333333 -0.4 0  -0.8666666666666667 -0.4 0  -0.8 -0.4 0  -0.7333333333333334 -0.4 0  -0.6666666666666667 -0.4 0  -0.6 -0.4 0  -0.5333333333333333 -0.4 0  -0.4666666666666667 -0.4 0  -0.4 -0.4 0  -0.3333333333333334 -0.4 0  -0.2666666666666667 -0.4 0  -0.2 -0.4 0  -0.1333333333333333 -0.4 0  -0.06666666666666665 -0.4 0  0 -0.4 0  0.06666666666666665 -0.4 0  0.1333333333333333 -0.4 0  0.2 -0.4 0  0.2666666666666666 -0.4 0  0.3333333333333333 -0.4 0  0.3999999999999999 -0.4 0  0.4666666666666666 -0.4 0  0.5333333333333334 -0.4 0  0.6000000000000001 -0.4 0  0.6666666666666667 -0.4 0  0.7333333333333334 -0.4 0 
[...]
<PointData  Scalars="f_24"> 
<DataArray  type="Float64"  Name="f_24"  format="ascii">0.0000000000000000e+00  0.0000000000000000e+00  0.0000000000000000e+00  0.0000000000000000e+00  0.0000000000000000e+00  0.0000000000000000e+00  0.0000000000000000e+00  0.0000000000000000e+00  0.0000000000000000e+00  0.0000000000000000e+00  0.0000000000000000e+00  0.0000000000000000e+00  0.0000000000000000e+00  0.0000000000000000e+00  0.0000000000000000e+00  0.0000000000000000e+00  0.0000000000000000e+00  0.0000000000000000e+00  0.0000000000000000e+00  0.0000000000000000e+00  0.0000000000000000e+00  0.0000000000000000e+00  0.0000000000000000e+00  0.0000000000000000e+00  0.0000000000000000e+00  0.0000000000000000e+00  0.0000000000000000e+00  0.0000000000000000e+00  0.0000000000000000e+00  0.0000000000000000e+00  1.1162821217136502e+01  0.0000000000000000e+00  5.4421361266242634e-02  1.0575756395588110e-01  1.5405394371531070e-01  1.9978036025283566e-01  2.4342140819352326e-01  2.8547845225870977e-01  3.2648576974577875e-01  3.6702423616955326e-01  4.0773637341307056e-01  4.4934229601840647e-01  4.9265900946934577e-01  5.3862627426175613e-01  5.8834262849370889e-01  6.4311597374236196e-01  7.0453448438493216e-01  7.7456583656921618e-01  8.5569645933485949e-01  9.5112825379492372e-01  1.0650592097095470e+00  1.2030885174039303e+00  1.3728097356552413e+00  1.5846942899727476e+00  1.8534360411071189e+00  2.2000570457122337e+00  2.6553367056404302e+00  3.2656920945725889e+00  4.1041078338060091e+00  5.2920026462681111e+00  7.0525755035022044e+00  9.7472238929352120e+00  0.0000000000000000e+00  1.0507368954920661e-01  1.9782340959317907e-01  2.7458139577540974e-01  3.3438944232493151e-01  3.7783035604198023e-01  4.0652096126315806e-01  4.2263427467164011e-01  4.2852643145959446e-01  4.2648015177826726e-01  4.1855209528534393e-01  4.0650518404559777e-01  3.9180163735353163e-01  3.7563575452120385e-01  3.5899158507157958e-01  3.4271758984850986e-01  3.2761800454285384e-01  3.1456892405892622e-01  3.0467781063124871e-01  2.9952128883419071e-01  3.0152305197984219e-01  3.1458096415010067e-01  3.4513727862246713e-01  4.0404242939950685e-01  5.0986175765641684e-01  6.9488300771842593e-01  1.0164625392235516e+00  1.5796369436483024e+00  2.5882453714165981e+00  4.4741287501444296e+00  8.4707346148645115e+00  0.0000000000000000e+00  1.4977701530491047e-01  2.6918008029283180e-01  3.4790353736012936e-01  3.8574809260343007e-01  3.8882490083375654e-01  3.6615981879609122e-01  3.2704057119489394e-01  2.7945556836953628e-01  2.2945977684694671e-01  1.8116051582202533e-01  1.3702505222014155e-01  9.8292211047194752e-02  6.5364518986101183e-02  3.8126958356540244e-02  1.6181892758824725e-02  -9.8843829806188454e-04  -1.3911700707498156e-02  -2.3043570254761881e-02  -2.8684451711285145e-02  -3.0849078639833501e-02  -2.9002631097492276e-02  -2.1482868283512098e-02  -4.2210914029091468e-03  3.2071585546910648e-02  1.0804766699935923e-01  2.6911149556713909e-01  6.1554856242343503e-01  1.3726172005408730e+00  3.0922850810469518e+00  7.3239270005632591e+00  0.0000000000000000e+00  1.8736398984077865e-01  3.1830456513490302e-01  3.7684384095277296e-01  3.7145638298311745e-01  3.2309572872250558e-01  2.5432346081328716e-01  1.8289722580515083e-01  1.1978209621361315e-01  6.9916817409710327e-02  3.4062313683730285e-02  1.0646918408539060e-02  -2.8563278363739186e-03  -9.0849418562442500e-03  -1.0363904232704930e-02  -8.5554397183866485e-03  -5.0589392559038243e-03  -8.7924641445502529e-04  3.2834494001990639e-03  6.9452948280287431e-03  9.7640705502424381e-03  1.1495964841515858e-02  1.2045855216964723e-02  1.1825645296158467e-02  1.3073693511822301e-02  2.3957958290323527e-02  7.0284590778266695e-02  2.2674762210655774e-01  7.0323175710044472e-01  2.0846232068618140e+00  6.2977054179286052e+00  0.0000000000000000e+00  2.1744936788652514e-01  3.4740370224422124e-01  3.7289197414150643e-01  3.2100327860748556e-01  2.3381074336294227e-01  1.4604877565526531e-01  7.6771948403961759e-02  3.1151901460721342e-02  6.1061894824026965e-03  -4.5063520402734555e-03  -6.6847571657629732e-03  -4.9435513318723603e-03  -2.1259579246079973e-03  2.7058061946922426e-04  1.6533642137350046e-03  1.9564583976810048e-03  1.3744898744160723e-03  1.9758814855856365e-04  -1.2816974947128057e-03  -2.8201783681131160e-03  -4.2641395661359421e-03  -5.6070619797246209e-03  -7.0695161297162721e-03  -8.9959612326969557e-03  -1.0443991257262733e-02  -2.1969793570536258e-03  6.0078217022263104e-02  3.4192235782447372e-01  1.4227234299172888e+00  5.3833049851159833e+00  0.0000000000000000e+00  2.4025504997895306e-01  3.6057689913380253e-01  3.4922326161578671e-01  2.5935833093968885e-01  1.5373699991899331e-01  7.1080829088729786e-02  2.2053494720677604e-02  3.6532520136052141e-04  -5.2124189887644513e-03  -3.9751285089305770e-03  -1.3472513369791534e-03  4.4789574380778985e-04  1.0423660784454635e-03  8.3185241983002828e-04  3.4790515319510029e-04  -6.4324775807580447e-06  -1.4263216054450783e-05  3.8620745797419292e-04  1.1552767535989272e-03  2.1987075287930088e-03  3.3979706749919657e-03  4.6116284522916664e-03  5.6016761833919022e-03  5.7640798002925337e-03  3.8077080995757963e-03  -1.6323844917320906e-04  1.1990367555471972e-02  1.5669266205268137e-01  9.4825893766092750e-01  4.5722915705391118e+00  0.0000000000000000e+00  2.5641257462022637e-01  3.6235519435852409e-01  3.1676292222203034e-01  2.0163163166924336e-01  9.4575649553574406e-02  2.8840701519995078e-02  1.2851222075923260e-03  -4.5488608533875213e-03  -2.7061503883626199e-03  -3.2510498147113743e-04  6.4750462689674472e-04  5.5883738328138847e-04  1.6575995309126007e-04  -7.5965928111481232e-05  -6.3910040402297315e-05  1.0896486184450167e-04  3.0449272711102575e-04  4.2308646305091801e-04  4.3027155892096536e-04  3.4909360154486701e-04  2.3726265117939699e-04  1.6615779882868666e-04  2.0285974772062639e-04  3.1403032234901800e-04  -2.4019201795959393e-04  -3.8978755272002191e-03  -8.0262797083283412e-03  5.4538556223292879e-02  6.2012601061735995e-01  3.8565617928699938e+00  0.0000000000000000e+00  2.6677375555607374e-01  3.5681481259382980e-01  2.8297561587378683e-01  1.5436880610996032e-01  5.5768576600919169e-02  8.6193317089219498e-03  -3.7177762938851158e-03  -2.7307169555942784e-03  -2.8312067250845408e-04  5.3630369748299325e-04  3.1730620850331536e-04  -3.3861105145278323e-06  -8.5445349861524902e-05  -7.9661248810923947e-08  1.0270428643157141e-04  1.5413081756960527e-04  1.7935416414665404e-04  2.5512364329195286e-04  4.6905723453531418e-04  8.9510371029538605e-04  1.5774389022437830e-03  2.5085563129909776e-03  3.6219904552317649e-03  4.8153525156740037e-03  5.8464565169913229e-03  4.7736377733494989e-03  -2.9401642132625928e-03  1.3002553898066524e-02  3.9430940316585933e-01  3.2283430210389250e+00  0.0000000000000000e+00  2.7225906754370521e-01  3.4719182551357092e-01  2.5219447234596065e-01  1.1880528803582713e-01  3.2323353086455876e-02  3.9202647202694923e-04  -3.4315440123731172e-03  -8.4699792142594232e-04  4.1557844089756195e-04  2.8240679316525631e-04  -2.0623968811759338e-05  -7.1546924572830605e-05  2.6776752220715344e-06  4.8247078433682754e-05  4.1704963860359981e-05  2.8935457253578452e-05  5.0597007500163153e-05  1.2104050786246362e-04  2.4633171973091692e-04  4.5145126382639466e-04  7.9202938106836174e-04  1.3333678491605360e-03  2.0720301045034769e-03  2.9146323097867023e-03  3.7399480157694234e-03  3.9415442338426449e-03  -1.9566163353780504e-03  -8.2367244115292160e-03  2.3508290587944916e-01  2.6801933742344737e+00  0.0000000000000000e+00  2.7375267350136562e-01  3.3582544365927236e-01  2.2648914810554729e-01  9.3678891594519864e-02  1.9032602126154912e-02  -2.2741219508129913e-03  -2.1837396222751438e-03  3.5038316250324552e-05  3.5399100935685915e-04  3.1947106228827354e-05  -6.9051595116010142e-05  -8.5909333721850146e-06  2.5696546349962843e-05  1.2295306787904229e-05  -1.2044349196555275e-06  5.9716469663639565e-06  2.6816489410400426e-05  6.1613581372761599e-05  1.4489531448587544e-04  3.5854073677944558e-04  8.3281900772747962e-04  1.7133832405034320e-03  3.0810943575682497e-03  4.7486468783193500e-03  6.4012183693128947e-03  7.6362778054943703e-03  5.0882833520083659e-03  -1.0029747563888036e-02  1.3322040351196526e-01  2.2050017219035078e+00  0.0000000000000000e+00  2.7204431054810174e-01  3.2426540281107363e-01  2.0652616374618221e-01  7.6981155875409907e-02  1.1962862831243334e-02  -2.7423664131102444e-03  -1.2288879988699235e-03  2.8331781827899903e-04  1.7925403667112038e-04  -4.9908302993704295e-05  -3.1352922127533146e-05  1.5315189850030894e-05  9.0167036600403422e-06  -4.4839255756515433e-06  -2.7286903164072279e-06  2.0352888657800288e-06  2.0729618041300710e-06  7.2524050098990197e-06  4.4622967931219294e-05  1.7372925566469565e-04  5.1604013616049515e-04  1.2648044503060763e-03  2.5799273270238976e-03  4.4179735268022559e-03  6.1417295180573031e-03  7.4928828414374902e-03  6.4057191558803718e-03  -8.9375332853487612e-03  6.1664625555428891e-02  1.7959876837511677e+00  0.0000000000000000e+00  2.6779712962492819e-01  3.1343998867738188e-01  1.9221257472792891e-01  6.6825998078215765e-02  8.5881910502349935e-03  -2.5122020816224213e-03  -7.0580428410044356e-04  2.8730486274754658e-04  7.1639538243512026e-05  -5.1501926479427391e-05  -4.8360882139116798e-06  1.2244941133141103e-05  -1.0262426132607690e-06  -3.4318617560197646e-06  5.0286858336587201e-07  -2.1657804124964783e-07  -3.1144892788326074e-06  -3.1644639352564728e-06  1.0799494655673291e-05  9.0695243511473692e-05  3.8811018145112842e-04  1.1778543583051181e-03  2.7859141676201253e-03  5.2205284326380238e-03  7.9439156963232744e-03  9.6486641051555435e-03  1.0372501073554178e-02  -3.0921733134226356e-03  2.1460838016396078e-02  1.4467016297408906e+00  0.0000000000000000e+00  2.6155355602122488e-01  3.0381296967782478e-01  1.8311536290339236e-01  6.1768948588722380e-02  7.4809153783408121e-03  -2.1426377351484545e-03  -4.8908659425610723e-04  2.3454641716478771e-04  2.9980185883475981e-05  -3.7347270899844976e-05  3.0133694783416802e-06  6.4287517195055136e-06  -2.4909580637500650e-06  -9.1760463330989472e-07  8.4899476907668139e-07  -3.8884985657811094e-07  -1.5217820562072869e-06  -4.6961948647378775e-06  -8.6875803080882631e-06  2.6113291614254353e-05  2.4648315497148744e-04  9.8698720763514686e-04  2.6598228269217321e-03  5.4802723341876138e-03  8.6644417476538383e-03  1.0855547819829456e-02  1.1121331709283262e-02  1.7621399979198874e-03  -5.5240450604101153e-03  1.1510246800943922e+00  0.0000000000000000e+00  2.5372277742890792e-01  2.9552356294598953e-01  1.7868275221276583e-01  6.0863683446367216e-02  7.9642354972818546e-03  -1.7641388476283975e-03  -4.5965220228358394e-04  1.8181975042446278e-04  2.4942157414728533e-05  -2.6792059033220512e-05  2.2505289316263151e-06  3.7868991581351244e-06  -1.5147335868086051e-06  -2.8103339578104384e-07  3.9080419924008097e-07  5.6320739179627284e-08  2.5921027048729554e-07  -2.4494030767976199e-06  -1.2191163214666475e-05  -3.5772450352713261e-06  1.7512028449252859e-04  9.1151869253607801e-04  2.8146277942309498e-03  6.1357851310518789e-03  1.0328411045889435e-02  1.3021645513586410e-02  1.3714205488053213e-02  6.7584572112329173e-03  -1.6543907274176442e-02  9.0316870529167625e-01  0.0000000000000000e+00  2.4463110598439600e-01  2.8847484308099319e-01  1.7836369189902473e-01  6.3593961663506546e-02  9.8744193550375087e-03  -1.3074079101030151e-03  -5.4596739720662627e-04  1.2729177374900340e-04  3.8156100854224676e-05  -1.9307951899855214e-05  -1.5859059372615722e-06  2.8671929926675816e-06  -2.2320486908188825e-07  -2.2031045359357938e-07  1.7588788714907274e-08  5.3310577600092212e-08  9.8743842670601203e-07  -1.8905229677774619e-07  -1.3180453081886766e-05  -2.2061012644669519e-05  1.2844006134434295e-04  9.1227834997134366e-04  3.0335639661614802e-03  6.9729703330328333e-03  1.1796066335165020e-02  1.5324173342861841e-02  1.4996047978860417e-02  1.0571780796551453e-02  -2.2447648337780769e-02  6.9767632607103136e-01  0.0000000000000000e+00  2.3447819980485621e-01  2.8241183114067470e-01  1.8160688777489387e-01  6.9787555182066557e-02  1.3417751585532692e-02  -5.5517696891850326e-04  -6.9739634949050216e-04  4.4399762241459058e-05  5.8070357288782915e-05  -8.2591709061817493e-06  -6.1407443830525144e-06  1.1058765109092634e-06  8.2618324706097963e-07  1.7736995888222916e-07  -1.7715049322167581e-07  -1.6848299609318993e-07  1.6008915792348372e-06  1.4191796984480838e-06  -1.5596214043360802e-05  -3.6653956630541651e-05  1.2830322934826986e-04  1.0347506520986599e-03  3.5778463552814184e-03  8.2031032815946398e-03  1.4019250296897620e-02  1.8035280101872612e-02  1.7555141583351901e-02  1.3573881022525181e-02  -2.1233413309253168e-02  5.2942091342903197e-01  0.0000000000000000e+00  2.2344665076163003e-01  2.7695395273828022e-01  1.8787502369590883e-01  7.9498329261262227e-02  1.9124765855701741e-02  8.9763446890708028e-04  -8.1802787578950660e-04  -1.0476173594190550e-04  6.4451483287162538e-05  1.2770642182958687e-05  -6.3403165470200231e-06  -2.5971055193420466e-06  -1.4277076059880383e-07  -1.2611231746236013e-07  -6.4987199496386385e-07  6.4293348758933762e-09  3.1575672443286406e-06  1.3743715203308775e-06  -2.5587919750624465e-05  -4.8503120529773831e-05  1.8376751626949061e-04  1.3795665148000368e-03  4.5019241395828592e-03  1.0083500643016517e-02  1.6647134035017105e-02  2.1270612216314561e-02  1.9757627459380964e-02  1.5897889141328284e-02  -1.8694063489649089e-02  3.9360658862053782e-01  0.0000000000000000e+00  2.1157659267449008e-01  2.7162477033974086e-01  1.9652771206984079e-01  9.2889185117005502e-02  2.7807865297990685e-02  3.7589414606510004e-03  -6.5236266178474276e-04  -3.3355306042655265e-04  1.0654552058717428e-05  3.5588755709528360e-05  6.7734336551655094e-06  -2.2918239913564650e-06  -2.2134000386862218e-06  -1.5011112152556964e-06  -5.6956973870458629e-07  2.3999639562380993e-06  5.4637406166832573e-06  -6.2807915690515575e-06  -4.9232055557177950e-05  -4.6204999206025131e-05  3.8524333941475223e-04  2.0954436587626120e-03  6.1477718732278388e-03  1.2780561085683774e-02  2.0237501792098982e-02  2.4874965677931942e-02  2.2707376496906222e-02  1.7542076449044656e-02  -1.3797247118469906e-02  2.8576822315869449e-01  0.0000000000000000e+00  1.9897601855022548e-01  2.6587634674145527e-01  2.0683879000835620e-01  1.1007881524666348e-01  4.0540391924150085e-02  9.1868034475694298e-03  4.2975864123073916e-04  -5.0850522835115962e-04  -1.6101502933439567e-04  7.9280842945319066e-06  2.3771994820676418e-05  1.1502785783373434e-05  4.7647693820614037e-06  3.4441348324593802e-06  5.0901617209344214e-06  6.8619041969226237e-06  -1.3576914417743356e-06  -3.7128437140586310e-05  -8.2856501590419665e-05  5.2351597755740475e-05  9.2807091072131967e-04  3.5536996758820665e-03  8.8601484215856136e-03  1.6750692444783159e-02  2.4732907912261088e-02  2.9096841978611891e-02  2.5580325998442909e-02  1.8880924150133586e-02  -9.2417013563977704e-03  2.0177143881493281e-01  0.0000000000000000e+00  1.8556055966774826e-01  2.5906502340493104e-01  2.1778016623767762e-01  1.3090806766142940e-01  5.8470308425223778e-02  1.8900975801512867e-02  3.7503201189679858e-03  -3.5235501723890147e-05  -3.5912798029434011e-04  -1.5094314028367561e-04  -3.0308967810874961e-05  4.3561899269468287e-06  9.2893295923681128e-06  7.6759340344691166e-06  2.6126870423367869e-06  -1.2626163007513734e-05  -4.8582786095751247e-05  -9.3260048330204285e-05  -2.8682107373022451e-05  5.1753007694123733e-04  2.3074136393105133e-03  6.3529877361767307e-03  1.3292681047061510e-02  2.2307242080780068e-02  3.0448482547494080e-02  3.3690957585948735e-02  2.8686046009778022e-02  1.9786155590210491e-02  -4.6014699848435136e-03  1.3781260761896924e-01  0.0000000000000000e+00  1.7141494398268139e-01  2.5053636841302424e-01  2.2813410458662362e-01  1.5473503429764329e-01  8.2569361285109555e-02  3.5152355747072581e-02  1.1694606140560240e-02  2.7315604416544991e-03  1.8154456215352288e-04  -2.4951566179789194e-04  -2.0108016690728410e-04  -1.2036495079230264e-04  -7.7369275324974757e-05  -6.5135854628889541e-05  -7.4281637994634664e-05  -9.6780837654810334e-05  -1.0159705283139408e-04  2.3528479981764836e-05  5.7109036469436326e-04  2.1182176999049711e-03  5.5046084005092102e-03  1.1522642080994384e-02  2.0167195642624539e-02  2.9892286052783542e-02  3.7268488321433771e-02  3.8641501448813238e-02  3.1529279467717913e-02  2.0468138076555838e-02  -8.9772571686150336e-04  9.0418851858805716e-02  0.0000000000000000e+00  1.5635346763448768e-01  2.3950426698460711e-01  2.3617062508141820e-01  1.7999384296200388e-01  1.1293279180353370e-01  6.0194689764976751e-02  2.7757973266638904e-02  1.1186702128415826e-02  3.9386550643247357e-03  1.1764873066872816e-03  2.5236281414549235e-04  -1.5069218070756180e-05  -7.3455370146027470e-05  -6.5586936765995807e-05  -1.4514416755410789e-05  1.2538718938945526e-04  4.8563051432579140e-04  1.3369579483528873e-03  3.1452875120240777e-03  6.5587532116819077e-03  1.2234292105443684e-02  2.0397099093368821e-02  3.0264512494984172e-02  3.9590520759103881e-02  4.5013980666582930e-02  4.3502233109354797e-02  3.3994835888645554e-02  2.0769067671849339e-02  2.0522938960687068e-03  5.6448044080729808e-02  0.0000000000000000e+00  1.4046414130289059e-01  2.2529251776150525e-01  2.4000010039603351e-01  2.0411863261504665e-01  1.4814648795553717e-01  9.5257855581007952e-02  5.5820555113770917e-02  3.0622006838134565e-02  1.6207932341322520e-02  8.5930787439183302e-03  4.7880402563385965e-03  2.9734695764663077e-03  2.1865492118988113e-03  1.9837425792624572e-03  2.2214203733256508e-03  2.9500820637800361e-03  4.3782275310454213e-03  6.8585612260027773e-03  1.0843544909599869e-02  1.6757243241937059e-02  2.4733291844557422e-02  3.4259262852151404e-02  4.3840012551972424e-02  5.1022600897946566e-02  5.2962905669838897e-02  4.7781950315325922e-02  3.5650196987464029e-02  2.0693150262771548e-02  4.0138112872988296e-03  3.3088807089314470e-02  0.0000000000000000e+00  1.2348437705055543e-01  2.0703732871942779e-01  2.3714377629821862e-01  2.2300047466791315e-01  1.8402264366048712e-01  1.3841078888810701e-01  9.7627747510106708e-02  6.6269298158460041e-02  4.4437611966815067e-02  3.0257748811539097e-02  2.1520047160025074e-02  1.6419699323099779e-02  1.3730053022006541e-02  1.2731277373704044e-02  1.3080981697803942e-02  1.4699217322149167e-02  1.7674289528893713e-02  2.2168378443168095e-02  2.8296143412241719e-02  3.5955900281636019e-02  4.4631841381749839e-02  5.3212268352073280e-02  5.9974995021414811e-02  6.2824731733485753e-02  5.9951438064685565e-02  5.0670062622752275e-02  3.6162981040729347e-02  2.0079979373777077e-02  5.1275106997648911e-03  1.7860513947418388e-02  0.0000000000000000e+00  1.0549855547265971e-01  1.8420414825764619e-01  2.2536414204615093e-01  2.3168601818235074e-01  2.1353869164440953e-01  1.8283893080894756e-01  1.4916120785283202e-01  1.1841184038571231e-01  9.3241949017118228e-02  7.4141910365459862e-02  6.0504922855288634e-02  5.1366129417019069e-02  4.5801931340476477e-02  4.3086659502386923e-02  4.2709916986298557e-02  4.4326472365248455e-02  4.7674757124160860e-02  5.2479689803718081e-02  5.8345570513085997e-02  6.4654765619646351e-02  7.0491690140810040e-02  7.4649035273035000e-02  7.5746012675161345e-02  7.2525251535797336e-02  6.4270507921943554e-02  5.1270977376493478e-02  3.5122997522228520e-02  1.8826322298540289e-02  5.4574175455413170e-03  8.6132879761855654e-03  0.0000000000000000e+00  8.6216188450010514e-02  1.5602306180698750e-01  2.0208938676154142e-01  2.2409847189938770e-01  2.2632634967196272e-01  2.1500472680172869e-01  1.9625491621001331e-01  1.7494323398670394e-01  1.5433907969269836e-01  1.3628055997714941e-01  1.2155200973210938e-01  1.1027363453695228e-01  1.0220602210415804e-01  9.6946741738353284e-02  9.4033135330278531e-02  9.2978829175955957e-02  9