<?xml version="1.0"?>
<VTKFile type="UnstructuredGrid"  version="0.1"  >
<UnstructuredGrid>
<Piece  NumberOfPoints="961" NumberOfCells="1800">
<Points>
<DataArray  type="Float64"  NumberOfComponents="3"  format="ascii">-1 -1 0  -0.9333333333333333 -1 0  -0.8666666666666667 -1 0  -0.8 -1 0  -0.7333333333333334 -1 0  -0.6666666666666667 -1 0  -0.6 -1 0  -0.5333333333333333 -1 0  -0.4666666666666667 -1 0  -0.4 -1 0  -0.3333333333333334 -1 0  -0.2666666666666667 -1 0  -0.2 -1 0  -0.1333333333333333 -1 0  -0.06666666666666665 -1 0  0 -1 0  0.06666666666666665 -1 0  0.1333333333333333 -1 0  0.2 -1 0  0.2666666666666666 -1 0  0.3333333333333333 -1 0  0.3999999999999999 -1 0  0.4666666666666666 -1 0  0.5333333333333334 -1 0  0.6000000000000001 -1 0  0.6666666666666667 -1 0  0.7333333333333334 -1 0  0.8 -1 0  0.8666666666666667 -1 0  0.9333333333333333 -1 0  1 -1 0  -1 -0.9333333333333333 0  -0.9333333333333333 -0.9333333333333333 0  -0.8666666666666667 -0.9333333333333333 0  -0.8 -0.9333333333333333 0  -0.7333333333333334 -0.9333333333333333 0  -0.6666666666666667 -0.9333333333333333 0  -0.6 -0.9333333333333333 0  -0.5333333333333333 -0.9333333333333333 0  -0.4666666666666667 -0.9333333333333333 0  -0.4 -0.9333333333333333 0  -0.3333333333333334 -0.9333333333333333 0  -0.2666666666666667 -0.9333333333333333 0  -0.2 -0.9333333333333333 0  -0.1333333333333333 -0.9333333333333333 0  -0.06666666666666665 -0.9333333333333333 0  0 -0.9333333333333333 0  0.06666666666666665 -0.9333333333333333 0  0.1333333333333333 -0.9333333333333333 0  0.2 -0.9333333333333333 0  0.2666666666666666 -0.9333333333333333 0  0.3333333333333333 -0.9333333333333333 0  0.3999999999999999 -0.9333333333333333 0  0.4666666666666666 -0.9333333333333333 0  0.5333333333333334 -0.9333333333333333 0  0.6000000000000001 -0.9333333333333333 0  0.6666666666666667 -0.9333333333333333 0  0.7333333333333334 -0.9333333333333333 0  0.8 -0.9333333333333333 0  0.8666666666666667 -0.9333333333333333 0  0.9333333333333333 -0.9333333333333333 0  1 -0.9333333333333333 0  -1 -0.8666666666666667 0  -0.9333333333333333 -0.8666666666666667 0  -0.8666666666666667 -0.8666666666666667 0  -0.8 -0.8666666666666667 0  -0.7333333333333334 -0.8666666666666667 0  -0.6666666666666667 -0.8666666666666667 0  -0.6 -0.8666666666666667 0  -0.5333333333333333 -0.8666666666666667 0  -0.4666666666666667 -0.8666666666666667 0  -0.4 -0.8666666666666667 0  -0.3333333333333334 -0.8666666666666667 0  -0.2666666666666667 -0.8666666666666667 0  -0.2 -0.8666666666666667 0  -0.1333333333333333 -0.8666666666666667 0  -0.06666666666666665 -0.8666666666666667 0  0 -0.8666666666666667 0  0.06666666666666665 -0.8666666666666667 0  0.1333333333333333 -0.8666666666666667 0  0.2 -0.8666666666666667 0  0.2666666666666666 -0.8666666666666667 0  0.3333333333333333 -0.8666666666666667 0  0.3999999999999999 -0.8666666666666667 0  0.4666666666666666 -0.8666666666666667 0  0.5333333333333334 -0.8666666666666667 0  0.6000000000000001 -0.8666666666666667 0  0.6666666666666667 -0.8666666666666667 0  0.7333333333333334 -0.8666666666666667 0  0.8 -0.8666666666666667 0  0.8666666666666667 -0.8666666666666667 0  0.9333333333333333 -0.8666666666666667 0  1 -0.8666666666666667 0  -1 -0.8 0  -0.9333333333333333 -0.8 0  -0.8666666666666667 -0.8 0  -0.8 -0.8 0  -0.7333333333333334 -0.8 0  -0.6666666666666667 -0.8 0  -0.6 -0.8 0  -0.5333333333333333 -0.8 0  -0.4666666666666667 -0.8 0  -0.4 -0.8 0  -0.3333333333333334 -0.8 0  -0.2666666666666667 -0.8 0  -0.2 -0.8 0  -0.1333333333333333 -0.8 0  -0.06666666666666665 -0.8 0  0 -0.8 0  0.06666666666666665 -0.8 0  0.1333333333333333 -0.8 0  0.2 -0.8 0  0.2666666666666666 -0.8 0  0.3333333333333333 -0.8 0  0.3999999999999999 -0.8 0  0.4666666666666666 -0.8 0  0.5333333333333334 -0.8 0  0.6000000000000001 -0.8 0  0.6666666666666667 -0.8 0  0.7333333333333334 -0.8 0  0.8 -0.8 0  0.8666666666666667 -0.8 0  0.9333333333333333 -0.8 0  1 -0.8 0  -1 -0.7333333333333334 0  -0.9333333333333333 -0.7333333333333334 0  -0.8666666666666667 -0.7333333333333334 0  -0.8 -0.7333333333333334 0  -0.7333333333333334 -0.7333333333333334 0  -0.6666666666666667 -0.7333333333333334 0  -0.6 -0.7333333333333334 0  -0.5333333333333333 -0.7333333333333334 0  -0.4666666666666667 -0.7333333333333334 0  -0.4 -0.7333333333333334 0  -0.3333333333333334 -0.7333333333333334 0  -0.2666666666666667 -0.7333333333333334 0  -0.2 -0.7333333333333334 0  -0.1333333333333333 -0.7333333333333334 0  -0.06666666666666665 -0.7333333333333334 0  0 -0.7333333333333334 0  0.06666666666666665 -0.7333333333333334 0  0.1333333333333333 -0.7333333333333334 0  0.2 -0.7333333333333334 0  0.2666666666666666 -0.7333333333333334 0  0.3333333333333333 -0.7333333333333334 0  0.3999999999999999 -0.7333333333333334 0  0.4666666666666666 -0.7333333333333334 0  0.5333333333333334 -0.7333333333333334 0  0.6000000000000001 -0.7333333333333334 0  0.6666666666666667 -0.7333333333333334 0  0.7333333333333334 -0.7333333333333334 0  0.8 -0.7333333333333334 0  0.8666666666666667 -0.7333333333333334 0  0.9333333333333333 -0.7333333333333334 0  1 -0.7333333333333334 0  -1 -0.6666666666666667 0  -0.9333333333333333 -0.6666666666666667 0  -0.8666666666666667 -0.6666666666666667 0  -0.8 -0.6666666666666667 0  -0.7333333333333334 -0.6666666666666667 0  -0.6666666666666667 -0.6666666666666667 0  -0.6 -0.6666666666666667 0  -0.5333333333333333 -0.6666666666666667 0  -0.4666666666666667 -0.6666666666666667 0  -0.4 -0.6666666666666667 0  -0.3333333333333334 -0.6666666666666667 0  -0.2666666666666667 -0.6666666666666667 0  -0.2 -0.6666666666666667 0  -0.1333333333333333 -0.6666666666666667 0  -0.06666666666666665 -0.6666666666666667 0  0 -0.6666666666666667 0  0.06666666666666665 -0.6666666666666667 0  0.1333333333333333 -0.6666666666666667 0  0.2 -0.6666666666666667 0  0.2666666666666666 -0.6666666666666667 0  0.3333333333333333 -0.6666666666666667 0  0.3999999999999999 -0.6666666666666667 0  0.4666666666666666 -0.6666666666666667 0  0.5333333333333334 -0.6666666666666667 0  0.6000000000000001 -0.6666666666666667 0  0.6666666666666667 -0.6666666666666667 0  0.7333333333333334 -0.6666666666666667 0  0.8 -0.6666666666666667 0  0.8666666666666667 -0.6666666666666667 0  0.9333333333333333 -0.6666666666666667 0  1 -0.6666666666666667 0  -1 -0.6 0  -0.9333333333333333 -0.6 0  -0.8666666666666667 -0.6 0  -0.8 -0.6 0  -0.7333333333333334 -0.6 0  -0.6666666666666667 -0.6 0  -0.6 -0.6 0  -0.5333333333333333 -0.6 0  -0.4666666666666667 -0.6 0  -0.4 -0.6 0  -0.3333333333333334 -0.6 0  -0.2666666666666667 -0.6 0  -0.2 -0.6 0  -0.1333333333333333 -0.6 0  -0.06666666666666665 -0.6 0  0 -0.6 0  0.06666666666666665 -0.6 0  0.1333333333333333 -0.6 0  0.2 -0.6 0  0.2666666666666666 -0.6 0  0.3333333333333333 -0.6 0  0.3999999999999999 -0.6 0  0.4666666666666666 -0.6 0  0.5333333333333334 -0.6 0  0.6000000000000001 -0.6 0  0.6666666666666667 -0.6 0  0.7333333333333334 -0.6 0  0.8 -0.6 0  0.8666666666666667 -0.6 0  0.9333333333333333 -0.6 0  1 -0.6 0  -1 -0.5333333333333333 0  -0.9333333333333333 -0.5333333333333333 0  -0.8666666666666667 -0.5333333333333333 0  -0.8 -0.5333333333333333 0  -0.7333333333333334 -0.5333333333333333 0  -0.6666666666666667 -0.5333333333333333 0  -0.6 -0.5333333333333333 0  -0.5333333333333333 -0.5333333333333333 0  -0.4666666666666667 -0.5333333333333333 0  -0.4 -0.5333333333333333 0  -0.3333333333333334 -0.5333333333333333 0  -0.2666666666666667 -0.5333333333333333 0  -0.2 -0.5333333333333333 0  -0.1333333333333333 -0.5333333333333333 0  -0.06666666666666665 -0.5333333333333333 0  0 -0.5333333333333333 0  0.06666666666666665 -0.5333333333333333 0  0.1333333333333333 -0.5333333333333333 0  0.2 -0.5333333333333333 0  0.2666666666666666 -0.5333333333333333 0  0.3333333333333333 -0.5333333333333333 0  0.3999999999999999 -0.5333333333333333 0  0.4666666666666666 -0.5333333333333333 0  0.5333333333333334 -0.5333333333333333 0  0.6000000000000001 -0.5333333333333333 0  0.6666666666666667 -0.5333333333333333 0  0.7333333333333334 -0.5333333333333333 0  0.8 -0.5333333333333333 0  0.8666666666666667 -0.5333333333333333 0  0.9333333333333333 -0.5333333333333333 0  1 -0.5333333333333333 0  -1 -0.4666666666666667 0  -0.9333333333333333 -0.4666666666666667 0  -0.8666666666666667 -0.4666666666666667 0  -0.8 -0.4666666666666667 0  -0.7333333333333334 -0.4666666666666667 0  -0.6666666666666667 -0.4666666666666667 0  -0.6 -0.4666666666666667 0  -0.5333333333333333 -0.4666666666666667 0  -0.4666666666666667 -0.4666666666666667 0  -0.4 -0.4666666666666667 0  -0.3333333333333334 -0.4666666666666667 0  -0.2666666666666667 -0.4666666666666667 0  -0.2 -0.4666666666666667 0  -0.1333333333333333 -0.4666666666666667 0  -0.06666666666666665 -0.4666666666666667 0  0 -0.4666666666666667 0  0.06666666666666665 -0.4666666666666667 0  0.1333333333333333 -0.4666666666666667 0  0.2 -0.4666666666666667 0  0.2666666666666666 -0.4666666666666667 0  0.3333333333333333 -0.4666666666666667 0  0.3999999999999999 -0.4666666666666667 0  0.4666666666666666 -0.4666666666666667 0  0.5333333333333334 -0.4666666666666667 0  0.6000000000000001 -0.4666666666666667 0  0.6666666666666667 -0.4666666666666667 0  0.7333333333333334 -0.4666666666666667 0  0.8 -0.4666666666666667 0  0.8666666666666667 -0.4666666666666667 0  0.9333333333333333 -0.4666666666666667 0  1 -0.4666666666666667 0  -1 -0.4 0  -0.9333333333333333 -0.4 0  -0.8666666666666667 -0.4 0  -0.8 -0.4 0  -0.7333333333333334 -0.4 0  -0.6666666666666667 -0.4 0  -0.6 -0.4 0  -0.5333333333333333 -0.4 0  -0.4666666666666667 -0.4 0  -0.4 -0.4 0  -0.3333333333333334 -0.4 0  -0.2666666666666667 -0.4 0  -0.2 -0.4 0  -0.1333333333333333 -0.4 0  -0.06666666666666665 -0.4 0  0 -0.4 0  0.06666666666666665 -0.4 0  0.1333333333333333 -0.4 0  0.2 -0.4 0  0.2666666666666666 -0.4 0  0.3333333333333333 -0.4 0  0.3999999999999999 -0.4 0  0.4666666666666666 -0.4 0  0.5333333333333334 -0.4 0  0.6000000000000001 -0.4 0  0.6666666666666667 -0.4 0  0.7333333333333334 -0.4 0 
[...]
<PointData  Scalars="f_24"> 
<DataArray  type="Float64"  Name="f_24"  format="ascii">0.0000000000000000e+00  0.0000000000000000e+00  0.0000000000000000e+00  0.0000000000000000e+00  0.0000000000000000e+00  0.0000000000000000e+00  0.0000000000000000e+00  0.0000000000000000e+00  0.0000000000000000e+00  0.0000000000000000e+00  0.0000000000000000e+00  0.0000000000000000e+00  0.0000000000000000e+00  0.0000000000000000e+00  0.0000000000000000e+00  0.0000000000000000e+00  0.0000000000000000e+00  0.0000000000000000e+00  0.0000000000000000e+00  0.0000000000000000e+00  0.0000000000000000e+00  0.0000000000000000e+00  0.0000000000000000e+00  0.0000000000000000e+00  0.0000000000000000e+00  0.0000000000000000e+00  0.0000000000000000e+00  0.0000000000000000e+00  0.0000000000000000e+00  0.0000000000000000e+00  1.0356234673248562e+01  0.0000000000000000e+00  5.0496674360279263e-02  9.8131102872798234e-02  1.4296048722831634e-01  1.8542042714638321e-01  2.2596135391475572e-01  2.6504899866787912e-01  3.0317911369527845e-01  3.4089021888932958e-01  3.7877755156817872e-01  4.1750783635601929e-01  4.5783717087698772e-01  5.0063499526224120e-01  5.4691749843357940e-01  5.9789454358986283e-01  6.5503546864723927e-01  7.2016117698172499e-01  7.9557337992800037e-01  8.8423717086583420e-01  9.9004144632066526e-01  1.1181748305427106e+00  1.2756760651437586e+00  1.4722537457012552e+00  1.7215338135232372e+00  2.0430132554635914e+00  2.4652416187969184e+00  3.0312766950529739e+00  3.8088251182218431e+00  4.9105298340424763e+00  6.5434643332393474e+00  9.0429234764566857e+00  0.0000000000000000e+00  9.7497781261576988e-02  1.8355795631596697e-01  2.5481311827338199e-01  3.1037377867992605e-01  3.5078492617188162e-01  3.7755062473109208e-01  3.9269016204120161e-01  3.9839188650525920e-01  3.9677498190025090e-01  3.8974772154666770e-01  3.7894450777066779e-01  3.6571919988243068e-01  3.5117526614954142e-01  3.3621896868710111e-01  3.2162826790316051e-01  3.0813721370302172e-01  2.9654331886083019e-01  2.8785533860447982e-01  2.8351388532572724e-01  2.8574230903816328e-01  2.9812909122102488e-01  3.2662165311543062e-01  3.8125664284302019e-01  4.7922902369022791e-01  6.5046679261965157e-01  9.4815865981442737e-01  1.4697334061494105e+00  2.4042913703115993e+00  4.1524754608487218e+00  7.8586688633583561e+00  0.0000000000000000e+00  1.3898058984782111e-01  2.4977018717663349e-01  3.2286706572379109e-01  3.5808636366020702e-01  3.6110709944133956e-01  3.4031149779103498e-01  3.0432308876782005e-01  2.6055807798520630e-01  2.1463702300267021e-01  1.7037202214399103e-01  1.3005237917909121e-01  9.4826619140153959e-02  6.5066112397965906e-02  4.0660138723429703e-02  2.1232642040628164e-02  6.2912259798690844e-03  -4.6728253438894042e-03  -1.2111059804122625e-02  -1.6342936726379324e-02  -1.7436445257368600e-02  -1.4963389774216324e-02  -7.4611477046103245e-03  8.7587462768878212e-03  4.2228266097973970e-02  1.1203099070087918e-01  2.6023091335635340e-01  5.7983040281443277e-01  1.2798010563938289e+00  2.8722548747081253e+00  6.7947255691183814e+00  0.0000000000000000e+00  1.7386220427232746e-01  2.9535512366473582e-01  3.4974123431988485e-01  3.4488336573854539e-01  3.0023394560110467e-01  2.3673400781489984e-01  1.7086352848601555e-01  1.1279667224840899e-01  6.7114180558697945e-02  3.4520520325754422e-02  1.3557729648741430e-02  1.8847059409422538e-03  -2.9385157215153401e-03  -3.0587634571739098e-03  -1.9222553839166461e-04  4.3721532633843041e-03  9.7039847468122966e-03  1.5140700013973335e-02  2.0196547461637168e-02  2.4483577223255538e-02  2.7663455769471438e-02  2.9491232863203373e-02  3.0154371977280263e-02  3.1516108448160877e-02  4.0953409452390906e-02  8.2255758702187917e-02  2.2464481315621371e-01  6.6285005107904349e-01  1.9395875155202569e+00  5.8426551802993023e+00  0.0000000000000000e+00  2.0178544654172265e-01  3.2236041788722497e-01  3.4609418111766399e-01  2.9811850454759031e-01  2.1747800458616243e-01  1.3640164181903658e-01  7.2563251794061118e-02  3.0750802734579367e-02  8.0932066488346079e-03  -1.1148002184787444e-03  -2.4391866625096893e-03  -5.8612024105294387e-05  3.4099633840015456e-03  6.6091475066225886e-03  9.0305050462716110e-03  1.0660688707891393e-02  1.1728419252909423e-02  1.2540820909162160e-02  1.3380353268102328e-02  1.4433179651765495e-02  1.5723569707695204e-02  1.7034225113378383e-02  1.7821569178761178e-02  1.7333739312357859e-02  1.5987223603351811e-02  2.1955827700395079e-02  7.6179910191674846e-02  3.3228284507314770e-01  1.3280299020197155e+00  4.9943261348613825e+00  0.0000000000000000e+00  2.2295646198053828e-01  3.3458957913483756e-01  3.2414839512228094e-01  2.4095356505786722e-01  1.4322941930111088e-01  6.6892634967630968e-02  2.1817440149902230e-02  2.1442272413915815e-03  -2.5658440443699659e-03  -9.4805881984135452e-04  1.9674935078173457e-03  4.1360418661414372e-03  5.2495247350194769e-03  5.7235664511085570e-03  6.1153851633994226e-03  6.8791509492573295e-03  8.3116401443373115e-03  1.0575074485943513e-02  1.3730276363847514e-02  1.7746555443203263e-02  2.2474772258603719e-02  2.7576756682956977e-02  3.2389804018112471e-02  3.5657900161113379e-02  3.5318794524771990e-02  3.0652512482130273e-02  3.8006084014201656e-02  1.6543357679004506e-01  8.9058215941336694e-01  4.2419137221626118e+00  0.0000000000000000e+00  2.3796153591137531e-01  3.3624664159454903e-01  2.9403936484584309e-01  1.8740560241151122e-01  8.8342428797668626e-02  2.7672317444877241e-02  2.4467215346883229e-03  -2.6375515375426620e-03  -6.3484454277720997e-04  1.8248358518770211e-03  2.9457712792607875e-03  3.0759453166554641e-03  2.9560465469935706e-03  3.0593565392331053e-03  3.5460830460934548e-03  4.4164652918048091e-03  5.6589761699586310e-03  7.3352550365876849e-03  9.6018767533753834e-03  1.2676195676348203e-02  1.6745624386802563e-02  2.1823998377458072e-02  2.7570732814803659e-02  3.3065579188621602e-02  3.6268264900520132e-02  3.3412761401885628e-02  2.5875859732077795e-02  7.5870587949560100e-02  5.8905005552621392e-01  3.5779000829587035e+00  0.0000000000000000e+00  2.4759127040207618e-01  3.3111393161144115e-01  2.6269271480414574e-01  1.4354867820090295e-01  5.2305110677425326e-02  8.8235191191631483e-03  -2.3762076147831285e-03  -1.2652321641300965e-03  1.1326531381525965e-03  1.9558940731573033e-03  1.7723958677574984e-03  1.4815960429514358e-03  1.4338228682496108e-03  1.6011610269021335e-03  1.8911264305788054e-03  2.3063044100320703e-03  2.9734570968709519e-03  4.1265968922289649e-03  6.0900634249197354e-03  9.2571264078667326e-03  1.4022291246591366e-02  2.0609472992288949e-02  2.8792937835582812e-02  3.7589173843755243e-02  4.4985698499975003e-02  4.6800859466652842e-02  3.6810893311616244e-02  4.2626257152205915e-02  3.8252412409657066e-01  2.9950742094031062e+00  0.0000000000000000e+00  2.5270023075482850e-01  3.2219453709792617e-01  2.3412954520668303e-01  1.1053232963324063e-01  3.0496009148869584e-02  1.0705680423986645e-03  -2.3218325719736332e-03  1.5883112104948460e-04  1.3367963006639546e-03  1.1609826641636120e-03  7.9699376724463498e-04  6.6537614688547716e-04  6.7248246786177283e-04  6.9558786598013440e-04  7.3493403166535450e-04  8.6904645553282766e-04  1.2049478393275914e-03  1.8894568785730701e-03  3.1693393405308355e-03  5.4602004720980656e-03  9.3580223331469672e-03  1.5493926439895712e-02  2.4116865517225066e-02  3.4514818526229084e-02  4.4557039751159946e-02  5.0373924149597904e-02  4.3571825481595439e-02  2.8191344411073450e-02  2.3780869466471077e-01  2.4865319450469792e+00  0.0000000000000000e+00  2.5410914685871133e-01  3.1165977132230627e-01  2.1027158073543159e-01  8.7189875289644531e-02  1.8095268647061968e-02  -1.5318034459259153e-03  -1.3666978449506143e-03  6.9794495555616743e-04  9.3451372471638357e-04  5.3765668240096372e-04  3.3681269667766654e-04  2.9916428836490811e-04  2.6260658057538093e-04  2.1174020540711634e-04  1.9418113907102981e-04  2.4070362005209901e-04  3.7917218315163095e-04  6.9612180054970992e-04  1.4161754313559340e-03  2.9970883868578324e-03  6.2075274948116110e-03  1.2056426465436160e-02  2.1377988938944357e-02  3.3879719384963980e-02  4.7314284739744000e-02  5.7185670698293466e-02  5.5509040274943175e-02  3.1693570766894705e-02  1.4628719342764557e-01  2.0456759848392232e+00  0.0000000000000000e+00  2.5255138447209058e-01  3.0094915763389773e-01  1.9173906700864896e-01  7.1662521003648699e-02  1.1463133978120208e-02  -2.0873720532668225e-03  -6.5307552196092829e-04  7.1433783129848535e-04  5.3547011560040796e-04  2.2366168096225455e-04  1.5005909581736453e-04  1.2453452241944422e-04  7.3976202350505842e-05  3.6689045254884835e-05  2.8521623520486680e-05  3.7385979339056989e-05  6.7136504444933621e-05  1.6960625333025826e-04  4.9496762016717967e-04  1.4103701207360290e-03  3.6781315074590772e-03  8.5520757600526381e-03  1.7433253777568866e-02  3.0825543865706136e-02  4.6540385974082242e-02  5.9630906198045452e-02  6.1671014093245775e-02  3.7704428925036157e-02  8.2810460014129963e-02  1.6662158751264513e+00  0.0000000000000000e+00  2.4864349289743970e-01  2.9092526238120237e-01  1.7844845324855976e-01  6.2203827281772733e-02  8.2632621941009614e-03  -1.9785951429173343e-03  -3.0262128453123710e-04  5.6719169451962257e-04  2.8714423718049055e-04  9.1831239918220499e-05  7.1169162871169956e-05  4.5828272439677774e-05  1.1399863828862860e-05  -8.2152082459154699e-07  -1.2032857566636962e-06  -3.4775055130012093e-06  -4.7206753055425484e-06  1.3838275451794446e-05  1.2724916918869576e-04  6.0302156653557651e-04  2.1580149726967658e-03  6.2036316125832934e-03  1.4697603676027314e-02  2.8898734992835875e-02  4.7287378512866282e-02  6.3630735836859353e-02  6.9861578251577544e-02  4.7905607325713320e-02  4.8297970392842171e-02  1.3421680136530134e+00  0.0000000000000000e+00  2.4288807670966966e-01  2.8202202003325028e-01  1.6999988425329948e-01  5.7477432891578535e-02  7.1745712784507549e-03  -1.7208843689556566e-03  -2.0152752175668190e-04  4.1784883315958035e-04  1.6106028558097166e-04  3.8822694748086489e-05  3.5004007239143271e-05  1.5877878069826475e-05  -1.5840107119407703e-06  -2.6523123250557476e-06  -1.3792546229575964e-06  -3.1272585210337215e-06  -6.6831896703358992e-06  -1.3332974629972037e-05  2.1307534776298661e-06  2.1181909695467592e-04  1.2229472073832718e-03  4.4926161967202942e-03  1.2341799036019493e-02  2.6876101910818691e-02  4.7025766359565395e-02  6.6431115634758064e-02  7.4703769265503830e-02  5.6925264347991590e-02  2.5879670018538300e-02  1.0678556495609790e+00  0.0000000000000000e+00  2.3566987813071699e-01  2.7436966524285844e-01  1.6588637836815612e-01  5.6606216377784645e-02  7.5715684327483813e-03  -1.4367688391965958e-03  -2.4557721739995478e-04  3.0422293243787224e-04  1.0674584752574052e-04  1.6511075850420452e-05  1.7315707166514541e-05  6.6693200645917344e-06  -1.9638410967550051e-06  -1.0887710853008948e-06  -3.2682671707001364e-09  -6.3709599168191144e-08  -8.0297789185264807e-07  -8.5025157222366114e-06  -2.4197380814919728e-05  5.0651099417123866e-05  7.2871338064340403e-04  3.4626469759462875e-03  1.0936199946129944e-02  2.5831478062411081e-02  4.7955797188295374e-02  7.0062635185358310e-02  8.0975849846904424e-02  6.5774862584194072e-02  1.8053278399242340e-02  8.3790888339014535e-01  0.0000000000000000e+00  2.2728511091961084e-01  2.6788515434055549e-01  1.6559792861750175e-01  5.9115518981920558e-02  9.3013651598911635e-03  -1.0638844448335259e-03  -3.7600846314240783e-04  2.1252315567507588e-04  9.1058220135329298e-05  8.0851721373415814e-06  7.3608249663245729e-06  4.2632624865313937e-06  -4.8411999448546513e-07  -4.7400999667486152e-07  2.1302001457329812e-08  3.3344269081254681e-07  1.4842326557626268e-06  -2.2538213204073781e-06  -2.5693591953078941e-05  -1.4945958219999475e-05  4.7559481858974213e-04  2.9279391932856814e-03  1.0232029794563412e-02  2.5690299582682777e-02  4.9279906632428927e-02  7.4002170577810278e-02  8.5832834850650699e-02  7.3182163281442669e-02  1.4703137470512457e-02  6.4726466707803509e-01  0.0000000000000000e+00  2.1793515204362635e-01  2.6233317301742903e-01  1.6863458825135286e-01  6.4845323630007140e-02  1.2556600420988575e-02  -4.0488930926917507e-04  -5.5175968262174047e-04  1.0910067355258677e-04  9.3558824952724839e-05  1.0858663453693249e-05  8.0365909835274845e-07  2.4658401237396522e-06  8.1051955511803913e-07  7.1461125514092616e-08  -2.0794162043392838e-07  -1.1166737728356327e-07  2.2029679432607771e-06  9.9185131984639036e-07  -2.5950535292064981e-05  -4.4062786762676769e-05  3.9344941824143512e-04  2.8319195648559025e-03  1.0436947069581742e-02  2.6745904658228667e-02  5.2095495258638942e-02  7.8708481321878840e-02  9.1741084284470364e-02  7.9439688787922222e-02  1.7632807142082676e-02  4.9116680395989726e-01  0.0000000000000000e+00  2.0776734851315859e-01  2.5737070903027037e-01  1.7449731352618642e-01  7.3854112852259984e-02  1.7827402367117114e-02  9.1482299220033679e-04  -6.8897370055202097e-04  -4.6768355713695597e-05  8.9895612476841046e-05  2.6586451583350926e-05  -1.2833987821722576e-07  -7.1516467260243388e-07  2.1798417317667116e-07  -9.2893042352975626e-08  -6.4308038575356342e-07  -4.4378071749520173e-08  3.6896382902299406e-06  1.0535999532733630e-06  -3.5585064718636021e-05  -5.6722943813308442e-05  4.5558014861570088e-04  3.2375478566612085e-03  1.1623283016117860e-02  2.9352006099182107e-02  5.6263868816926660e-02  8.4449563183904230e-02  9.7216635636570653e-02  8.4602492768699050e-02  2.1412067515913097e-02  3.6516594876870639e-01  0.0000000000000000e+00  1.9685914570732760e-01  2.5256099755704514e-01  1.8261989841763210e-01  8.6299474966582204e-02  2.5873454926893538e-02  3.5491458079002745e-03  -5.5348425625828090e-04  -2.7145764761359823e-04  3.3718408302298694e-05  4.5631204978596960e-05  1.1912473354367178e-05  -1.1839341937654798e-08  -1.3576591644610178e-06  -1.2195150478385001e-06  -4.6609897487419312e-07  2.3369461284256498e-06  5.9452514200321271e-06  -7.6556816737601080e-06  -6.0865236566276308e-05  -4.0283682340314222e-05  7.6274064592359307e-04  4.3371109215290700e-03  1.4220492783787456e-02  3.3827959629513925e-02  6.2471520050591881e-02  9.1182291237878493e-02  1.0326459253770597e-01  8.8578417343276067e-02  2.6940037588122304e-02  2.6511960763516323e-01  0.0000000000000000e+00  1.8525772328111006e-01  2.4740446912988678e-01  1.9232311463974774e-01  1.0230978075104741e-01  3.7693648722060519e-02  8.5753786788059713e-03  4.3799954054900899e-04  -4.4269358335706857e-04  -1.3014557173656832e-04  1.8521557884523420e-05  2.7762407055872868e-05  1.3281434732781075e-05  5.5366572542693599e-06  3.6491231195882750e-06  5.0702977760784928e-06  6.7508464285364540e-06  -1.2063222342830144e-06  -4.0951046750248429e-05  -9.3649544996046770e-05  1.1213573423760806e-04  1.5844982230812364e-03  6.6447502297547886e-03  1.8782093918349358e-02  4.0827813708382940e-02  7.0809176877057803e-02  9.9155732639919489e-02  1.0903218550980726e-01  9.1596820956452676e-02  3.1652494752501988e-02  1.8719213808769414e-01  0.0000000000000000e+00  1.7296780685455287e-01  2.4132397657708343e-01  2.0271504041058333e-01  1.2177380558270508e-01  5.4384437388213989e-02  1.7599313901745260e-02  3.5155817406019737e-03  -9.4048890440350545e-06  -3.1783492969101381e-04  -1.3043596734974274e-04  -2.2574879786525652e-05  6.9968269678892675e-06  1.0135261780035041e-05  7.9074164776135376e-06  2.8536029999481933e-06  -1.2234615452487286e-05  -4.8917311773083593e-05  -9.7818661992076896e-05  -1.3692239138150383e-05  7.5050400999398669e-04  3.5957860998289603e-03  1.1052999198809166e-02  2.6294620373280338e-02  5.0927151519287957e-02  8.1653954447673288e-02  1.0804398016997116e-01  1.1462984734892778e-01  9.3389561545144106e-02  3.5883297772839211e-02  1.2785474905245145e-01  0.0000000000000000e+00  1.5996438565112533e-01  2.3370618037754837e-01  2.1264657867684578e-01  1.4413067872532742e-01  7.6877875405570284e-02  3.2735819131219958e-02  1.0907039182055090e-02  2.5635442751524603e-03  1.8468884091265935e-04  -2.2216325756367443e-04  -1.8129160561847226e-04  -1.0881665766823931e-04  -7.0366958895504446e-05  -6.0074870831556714e-05  -6.9784442594734931e-05  -9.2636693746362507e-05  -9.6979820735602332e-05  4.5497812407272323e-05  7.2403066248009071e-04  2.8531999576731988e-03  8.1519347266232924e-03  1.9085057606131620e-02  3.7950858343390036e-02  6.4816070872192849e-02  9.4852202944212038e-02  1.1756897890920456e-01  1.1931490375316618e-01  9.3970780512983187e-02  3.8624764522362812e-02  8.3885500853313394e-02  0.0000000000000000e+00  1.4622236148561657e-01  2.2387861648210194e-01  2.2063424130949355e-01  1.6804215848483406e-01  1.0538782636626927e-01  5.6171297351495834e-02  2.5919444594166320e-02  1.0464296221037256e-02  3.6994460151946254e-03  1.1167711327400548e-03  2.4950158425962192e-04  -3.4775938084471304e-06  -5.9784435576855294e-05  -5.2248953826197392e-05  -2.5878398255581829e-07  1.4697886468099624e-04  5.4218799117241451e-04  1.5342390417254991e-03  3.8224446384645216e-03  8.6122315386521937e-03  1.7649124092486729e-02  3.2804863231993560e-02  5.5057957142492508e-02  8.2710491836566535e-02  1.0994384559270730e-01  1.2683043558336748e-01  1.2257839940709320e-01  9.2984664990677118e-02  3.9989631650566057e-02  5.2369305211884119e-02  0.0000000000000000e+00  1.3165017240383989e-01  2.1116314148622498e-01  2.2486579227816600e-01  1.9116925442004928e-01  1.3870723666750612e-01  8.9194454533141482e-02  5.2301609948430590e-02  2.8735817663058917e-02  1.5252935305695554e-02  8.1253154251537760e-03  4.5611648727626655e-03  2.8634991791311416e-03  2.1369171520548443e-03  1.9748549553177744e-03  2.2610697311943916e-03  3.0866843457896353e-03  4.7506941509280459e-03  7.8111176359912209e-03  1.3141026186784730e-02  2.1912806004786751e-02  3.5386078687478749e-02  5.4359175168485367e-02  7.8250187836435031e-02  1.0400716995698081e-01  1.2556057436800505e-01  1.3460873726739384e-01  1.2349823635133422e-01  9.0206687164363475e-02  3.9709882845677197e-02  3.0697925247493551e-02  0.0000000000000000e+00  1.1623277313425785e-01  1.9488967556914291e-01  2.2325357960413891e-01  2.0994913285176670e-01  1.7329002306904609e-01  1.3041303520770714e-01  9.2093965271283384e-02  6.2639632905402046e-02  4.2139009211247476e-02  2.8832455215972053e-02  2.0652694083676919e-02  1.5917525503966318e-02  1.3494762566161240e-02  1.2743248099254659e-02  1.3407305532603884e-02  1.5535600423071701e-02  1.9432558331157104e-02  2.5619806360771241e-02  3.4765722351895553e-02  4.7525170784087169e-02  6.4240722970535735e-02  8.4461138190039753e-02  1.0639927855909234e-01  1.2644926090295250e-01  1.3935719394213589e-01  1.3908479761807677e-01  1.2114892633106625e-01  8.5257352389958990e-02  3.7876142548817326e-02  1.6569975477197685e-02  0.0000000000000000e+00  9.9794623585981249e-02  1.7441082578113098e-01  2.1354526335536225e-01  2.1972364512197007e-01  2.0273216312446024e-01  1.7385362730289750e-01  1.4215272443874652e-01  1.1322242642149374e-01  8.9578099400657044e-02  7.1698480703095785e-02  5.9035312199496218e-02  5.0716584417885242e-02  4.5931323664084860e-02  4.4089330982135966e-02  4.4853688039742518e-02  4.8112254673841767e-02  5.3917536402887899e-02  6.2399763091473631e-02  7.3641066931710700e-02  8.7501245093870847e-02  1.0338600098973660e-01  1.1999777628626242e-01  1.3513039616520098e-01  1.4564580430570848e-01  1.4782744510033724e-01  1.3810116221752050e-01  1.1449221638082339e-01  7.7833087664892983e-02  3.4522334948759913e-02  7.9909218157782035e-03  0.0000000000000000e+00  8.2376923544102504e-02  1.4926956711798792e-01  1.9369090691017241e-01  2.1523703496844354e-01  2.1793146592282683e-01  2.0768973514863331e-01  1.9035113366668627e-01  1.7057619490170364e-01  1.5151768023443335e-01  1.3497845245205459e-01  1.2177395027547350e-01  1.1210730224364000e-01  1.0586382451210181e-01  1.0280236128700702e-01  1.0265528539016476e-01  1.0516046470482607e-01  1.1004460990157856e-01  1.1697242413737555e-01  1.25471558404