<?xml version="1.0"?>
<VTKFile type="UnstructuredGrid"  version="0.1"  >
<UnstructuredGrid>
<Piece  NumberOfPoints="961" NumberOfCells="1800">
<Points>
<DataArray  type="Float64"  NumberOfComponents="3"  format="ascii">-1 -1 0  -0.9333333333333333 -1 0  -0.8666666666666667 -1 0  -0.8 -1 0  -0.7333333333333334 -1 0  -0.6666666666666667 -1 0  -0.6 -1 0  -0.5333333333333333 -1 0  -0.4666666666666667 -1 0  -0.4 -1 0  -0.3333333333333334 -1 0  -0.2666666666666667 -1 0  -0.2 -1 0  -0.1333333333333333 -1 0  -0.06666666666666665 -1 0  0 -1 0  0.06666666666666665 -1 0  0.1333333333333333 -1 0  0.2 -1 0  0.2666666666666666 -1 0  0.3333333333333333 -1 0  0.3999999999999999 -1 0  0.4666666666666666 -1 0  0.5333333333333334 -1 0  0.6000000000000001 -1 0  0.6666666666666667 -1 0  0.7333333333333334 -1 0  0.8 -1 0  0.8666666666666667 -1 0  0.9333333333333333 -1 0  1 -1 0  -1 -0.9333333333333333 0  -0.9333333333333333 -0.9333333333333333 0  -0.8666666666666667 -0.9333333333333333 0  -0.8 -0.9333333333333333 0  -0.7333333333333334 -0.9333333333333333 0  -0.6666666666666667 -0.9333333333333333 0  -0.6 -0.9333333333333333 0  -0.5333333333333333 -0.9333333333333333 0  -0.4666666666666667 -0.9333333333333333 0  -0.4 -0.9333333333333333 0  -0.3333333333333334 -0.9333333333333333 0  -0.2666666666666667 -0.9333333333333333 0  -0.2 -0.9333333333333333 0  -0.1333333333333333 -0.9333333333333333 0  -0.06666666666666665 -0.9333333333333333 0  0 -0.9333333333333333 0  0.06666666666666665 -0.9333333333333333 0  0.1333333333333333 -0.9333333333333333 0  0.2 -0.9333333333333333 0  0.2666666666666666 -0.9333333333333333 0  0.3333333333333333 -0.9333333333333333 0  0.3999999999999999 -0.9333333333333333 0  0.4666666666666666 -0.9333333333333333 0  0.5333333333333334 -0.9333333333333333 0  0.6000000000000001 -0.9333333333333333 0  0.6666666666666667 -0.9333333333333333 0  0.7333333333333334 -0.9333333333333333 0  0.8 -0.9333333333333333 0  0.8666666666666667 -0.9333333333333333 0  0.9333333333333333 -0.9333333333333333 0  1 -0.9333333333333333 0  -1 -0.8666666666666667 0  -0.9333333333333333 -0.8666666666666667 0  -0.8666666666666667 -0.8666666666666667 0  -0.8 -0.8666666666666667 0  -0.7333333333333334 -0.8666666666666667 0  -0.6666666666666667 -0.8666666666666667 0  -0.6 -0.8666666666666667 0  -0.5333333333333333 -0.8666666666666667 0  -0.4666666666666667 -0.8666666666666667 0  -0.4 -0.8666666666666667 0  -0.3333333333333334 -0.8666666666666667 0  -0.2666666666666667 -0.8666666666666667 0  -0.2 -0.8666666666666667 0  -0.1333333333333333 -0.8666666666666667 0  -0.06666666666666665 -0.8666666666666667 0  0 -0.8666666666666667 0  0.06666666666666665 -0.8666666666666667 0  0.1333333333333333 -0.8666666666666667 0  0.2 -0.8666666666666667 0  0.2666666666666666 -0.8666666666666667 0  0.3333333333333333 -0.8666666666666667 0  0.3999999999999999 -0.8666666666666667 0  0.4666666666666666 -0.8666666666666667 0  0.5333333333333334 -0.8666666666666667 0  0.6000000000000001 -0.8666666666666667 0  0.6666666666666667 -0.8666666666666667 0  0.7333333333333334 -0.8666666666666667 0  0.8 -0.8666666666666667 0  0.8666666666666667 -0.8666666666666667 0  0.9333333333333333 -0.8666666666666667 0  1 -0.8666666666666667 0  -1 -0.8 0  -0.9333333333333333 -0.8 0  -0.8666666666666667 -0.8 0  -0.8 -0.8 0  -0.7333333333333334 -0.8 0  -0.6666666666666667 -0.8 0  -0.6 -0.8 0  -0.5333333333333333 -0.8 0  -0.4666666666666667 -0.8 0  -0.4 -0.8 0  -0.3333333333333334 -0.8 0  -0.2666666666666667 -0.8 0  -0.2 -0.8 0  -0.1333333333333333 -0.8 0  -0.06666666666666665 -0.8 0  0 -0.8 0  0.06666666666666665 -0.8 0  0.1333333333333333 -0.8 0  0.2 -0.8 0  0.2666666666666666 -0.8 0  0.3333333333333333 -0.8 0  0.3999999999999999 -0.8 0  0.4666666666666666 -0.8 0  0.5333333333333334 -0.8 0  0.6000000000000001 -0.8 0  0.6666666666666667 -0.8 0  0.7333333333333334 -0.8 0  0.8 -0.8 0  0.8666666666666667 -0.8 0  0.9333333333333333 -0.8 0  1 -0.8 0  -1 -0.7333333333333334 0  -0.9333333333333333 -0.7333333333333334 0  -0.8666666666666667 -0.7333333333333334 0  -0.8 -0.7333333333333334 0  -0.7333333333333334 -0.7333333333333334 0  -0.6666666666666667 -0.7333333333333334 0  -0.6 -0.7333333333333334 0  -0.5333333333333333 -0.7333333333333334 0  -0.4666666666666667 -0.7333333333333334 0  -0.4 -0.7333333333333334 0  -0.3333333333333334 -0.7333333333333334 0  -0.2666666666666667 -0.7333333333333334 0  -0.2 -0.7333333333333334 0  -0.1333333333333333 -0.7333333333333334 0  -0.06666666666666665 -0.7333333333333334 0  0 -0.7333333333333334 0  0.06666666666666665 -0.7333333333333334 0  0.1333333333333333 -0.7333333333333334 0  0.2 -0.7333333333333334 0  0.2666666666666666 -0.7333333333333334 0  0.3333333333333333 -0.7333333333333334 0  0.3999999999999999 -0.7333333333333334 0  0.4666666666666666 -0.7333333333333334 0  0.5333333333333334 -0.7333333333333334 0  0.6000000000000001 -0.7333333333333334 0  0.6666666666666667 -0.7333333333333334 0  0.7333333333333334 -0.7333333333333334 0  0.8 -0.7333333333333334 0  0.8666666666666667 -0.7333333333333334 0  0.9333333333333333 -0.7333333333333334 0  1 -0.7333333333333334 0  -1 -0.6666666666666667 0  -0.9333333333333333 -0.6666666666666667 0  -0.8666666666666667 -0.6666666666666667 0  -0.8 -0.6666666666666667 0  -0.7333333333333334 -0.6666666666666667 0  -0.6666666666666667 -0.6666666666666667 0  -0.6 -0.6666666666666667 0  -0.5333333333333333 -0.6666666666666667 0  -0.4666666666666667 -0.6666666666666667 0  -0.4 -0.6666666666666667 0  -0.3333333333333334 -0.6666666666666667 0  -0.2666666666666667 -0.6666666666666667 0  -0.2 -0.6666666666666667 0  -0.1333333333333333 -0.6666666666666667 0  -0.06666666666666665 -0.6666666666666667 0  0 -0.6666666666666667 0  0.06666666666666665 -0.6666666666666667 0  0.1333333333333333 -0.6666666666666667 0  0.2 -0.6666666666666667 0  0.2666666666666666 -0.6666666666666667 0  0.3333333333333333 -0.6666666666666667 0  0.3999999999999999 -0.6666666666666667 0  0.4666666666666666 -0.6666666666666667 0  0.5333333333333334 -0.6666666666666667 0  0.6000000000000001 -0.6666666666666667 0  0.6666666666666667 -0.6666666666666667 0  0.7333333333333334 -0.6666666666666667 0  0.8 -0.6666666666666667 0  0.8666666666666667 -0.6666666666666667 0  0.9333333333333333 -0.6666666666666667 0  1 -0.6666666666666667 0  -1 -0.6 0  -0.9333333333333333 -0.6 0  -0.8666666666666667 -0.6 0  -0.8 -0.6 0  -0.7333333333333334 -0.6 0  -0.6666666666666667 -0.6 0  -0.6 -0.6 0  -0.5333333333333333 -0.6 0  -0.4666666666666667 -0.6 0  -0.4 -0.6 0  -0.3333333333333334 -0.6 0  -0.2666666666666667 -0.6 0  -0.2 -0.6 0  -0.1333333333333333 -0.6 0  -0.06666666666666665 -0.6 0  0 -0.6 0  0.06666666666666665 -0.6 0  0.1333333333333333 -0.6 0  0.2 -0.6 0  0.2666666666666666 -0.6 0  0.3333333333333333 -0.6 0  0.3999999999999999 -0.6 0  0.4666666666666666 -0.6 0  0.5333333333333334 -0.6 0  0.6000000000000001 -0.6 0  0.6666666666666667 -0.6 0  0.7333333333333334 -0.6 0  0.8 -0.6 0  0.8666666666666667 -0.6 0  0.9333333333333333 -0.6 0  1 -0.6 0  -1 -0.5333333333333333 0  -0.9333333333333333 -0.5333333333333333 0  -0.8666666666666667 -0.5333333333333333 0  -0.8 -0.5333333333333333 0  -0.7333333333333334 -0.5333333333333333 0  -0.6666666666666667 -0.5333333333333333 0  -0.6 -0.5333333333333333 0  -0.5333333333333333 -0.5333333333333333 0  -0.4666666666666667 -0.5333333333333333 0  -0.4 -0.5333333333333333 0  -0.3333333333333334 -0.5333333333333333 0  -0.2666666666666667 -0.5333333333333333 0  -0.2 -0.5333333333333333 0  -0.1333333333333333 -0.5333333333333333 0  -0.06666666666666665 -0.5333333333333333 0  0 -0.5333333333333333 0  0.06666666666666665 -0.5333333333333333 0  0.1333333333333333 -0.5333333333333333 0  0.2 -0.5333333333333333 0  0.2666666666666666 -0.5333333333333333 0  0.3333333333333333 -0.5333333333333333 0  0.3999999999999999 -0.5333333333333333 0  0.4666666666666666 -0.5333333333333333 0  0.5333333333333334 -0.5333333333333333 0  0.6000000000000001 -0.5333333333333333 0  0.6666666666666667 -0.5333333333333333 0  0.7333333333333334 -0.5333333333333333 0  0.8 -0.5333333333333333 0  0.8666666666666667 -0.5333333333333333 0  0.9333333333333333 -0.5333333333333333 0  1 -0.5333333333333333 0  -1 -0.4666666666666667 0  -0.9333333333333333 -0.4666666666666667 0  -0.8666666666666667 -0.4666666666666667 0  -0.8 -0.4666666666666667 0  -0.7333333333333334 -0.4666666666666667 0  -0.6666666666666667 -0.4666666666666667 0  -0.6 -0.4666666666666667 0  -0.5333333333333333 -0.4666666666666667 0  -0.4666666666666667 -0.4666666666666667 0  -0.4 -0.4666666666666667 0  -0.3333333333333334 -0.4666666666666667 0  -0.2666666666666667 -0.4666666666666667 0  -0.2 -0.4666666666666667 0  -0.1333333333333333 -0.4666666666666667 0  -0.06666666666666665 -0.4666666666666667 0  0 -0.4666666666666667 0  0.06666666666666665 -0.4666666666666667 0  0.1333333333333333 -0.4666666666666667 0  0.2 -0.4666666666666667 0  0.2666666666666666 -0.4666666666666667 0  0.3333333333333333 -0.4666666666666667 0  0.3999999999999999 -0.4666666666666667 0  0.4666666666666666 -0.4666666666666667 0  0.5333333333333334 -0.4666666666666667 0  0.6000000000000001 -0.4666666666666667 0  0.6666666666666667 -0.4666666666666667 0  0.7333333333333334 -0.4666666666666667 0  0.8 -0.4666666666666667 0  0.8666666666666667 -0.4666666666666667 0  0.9333333333333333 -0.4666666666666667 0  1 -0.4666666666666667 0  -1 -0.4 0  -0.9333333333333333 -0.4 0  -0.8666666666666667 -0.4 0  -0.8 -0.4 0  -0.7333333333333334 -0.4 0  -0.6666666666666667 -0.4 0  -0.6 -0.4 0  -0.5333333333333333 -0.4 0  -0.4666666666666667 -0.4 0  -0.4 -0.4 0  -0.3333333333333334 -0.4 0  -0.2666666666666667 -0.4 0  -0.2 -0.4 0  -0.1333333333333333 -0.4 0  -0.06666666666666665 -0.4 0  0 -0.4 0  0.06666666666666665 -0.4 0  0.1333333333333333 -0.4 0  0.2 -0.4 0  0.2666666666666666 -0.4 0  0.3333333333333333 -0.4 0  0.3999999999999999 -0.4 0  0.4666666666666666 -0.4 0  0.5333333333333334 -0.4 0  0.6000000000000001 -0.4 0  0.6666666666666667 -0.4 0  0.7333333333333334 -0.4 0 
[...]
<PointData  Scalars="f_24"> 
<DataArray  type="Float64"  Name="f_24"  format="ascii">0.0000000000000000e+00  0.0000000000000000e+00  0.0000000000000000e+00  0.0000000000000000e+00  0.0000000000000000e+00  0.0000000000000000e+00  0.0000000000000000e+00  0.0000000000000000e+00  0.0000000000000000e+00  0.0000000000000000e+00  0.0000000000000000e+00  0.0000000000000000e+00  0.0000000000000000e+00  0.0000000000000000e+00  0.0000000000000000e+00  0.0000000000000000e+00  0.0000000000000000e+00  0.0000000000000000e+00  0.0000000000000000e+00  0.0000000000000000e+00  0.0000000000000000e+00  0.0000000000000000e+00  0.0000000000000000e+00  0.0000000000000000e+00  0.0000000000000000e+00  0.0000000000000000e+00  0.0000000000000000e+00  0.0000000000000000e+00  0.0000000000000000e+00  0.0000000000000000e+00  1.3431312332307316e+01  0.0000000000000000e+00  1.9916544841232165e-02  6.1321350331585596e-02  1.1448749297367133e-01  1.7172697356956348e-01  2.2968019939998649e-01  2.8697918282653484e-01  3.4324380034239099e-01  3.9865342082845168e-01  4.5373255822198472e-01  5.0924816470292333e-01  5.6616646689418171e-01  6.2564588770217999e-01  6.8905827723972113e-01  7.5803688500968114e-01  8.3455413619747998e-01  9.2103679448259135e-01  1.0205312929706754e+00  1.1369394397947645e+00  1.2753558149676152e+00  1.4425553930335335e+00  1.6477076707184977e+00  1.9034402421968368e+00  2.2274571617354173e+00  2.6450732813093882e+00  3.1933405651330271e+00  3.9281248746087316e+00  4.9372551283803148e+00  6.3668426125164386e+00  8.4854482175627783e+00  1.1728039528032902e+01  0.0000000000000000e+00  3.6869111068868123e-02  1.0984687148208248e-01  1.9690275742504570e-01  2.7889856441069533e-01  3.4765950563374715e-01  4.0029421416956068e-01  4.3692247571480591e-01  4.5923323601993266e-01  4.6958605231301959e-01  4.7048482506162254e-01  4.6428492090054529e-01  4.5305972947212536e-01  4.3857053142741897e-01  4.2230010008925539e-01  4.0552742866189651e-01  3.8943428199852015e-01  3.7524749122288531e-01  3.6443616980988686e-01  3.5900386381838556e-01  3.6194902234194842e-01  3.7802460228390805e-01  4.1502998648288597e-01  4.8605696238799051e-01  6.1347097284857088e-01  8.3614201393121246e-01  1.2230966077702325e+00  1.9007303673145945e+00  3.1143059553309280e+00  5.3834508394209086e+00  1.0192144090032945e+01  0.0000000000000000e+00  4.9896622783634138e-02  1.4133757254035112e-01  2.3780038559337294e-01  3.0884910206366312e-01  3.4579136680410827e-01  3.5059956208375370e-01  3.3054366447416450e-01  2.9417300354749332e-01  2.4918663806049760e-01  2.0154972374725780e-01  1.5536549875436265e-01  1.1313586642033313e-01  7.6150589003032940e-02  4.4868176347172592e-02  1.9230467460652829e-02  -1.1012907714920053e-03  -1.6576206587624320e-02  -2.7624726534304707e-02  -3.4535630339538138e-02  -3.7282923001710121e-02  -3.5197299201859676e-02  -2.6263656953929865e-02  -5.5777988678538237e-03  3.8041845721020581e-02  1.2944645212648270e-01  3.2326937167632969e-01  7.4017009037293424e-01  1.6511960109072150e+00  3.7204405232491862e+00  8.8122840212268301e+00  0.0000000000000000e+00  5.8675552940580231e-02  1.5619458108681844e-01  2.4282962931227339e-01  2.8272115953415028e-01  2.7540364545814539e-01  2.3514468389172555e-01  1.7971253717594102e-01  1.2332089494111237e-01  7.4657296488718466e-02  3.7443090829244775e-02  1.1987422155757198e-02  -3.2617826093385731e-03  -1.0577506438802418e-02  -1.2264033155062732e-02  -1.0320470609163331e-02  -6.3303360757381915e-03  -1.4739644783728998e-03  3.4035962619086203e-03  7.7079208882269669e-03  1.1016042701298556e-02  1.3029091007448044e-02  1.3634001008434184e-02  1.3333845180586031e-02  1.4832389920872541e-02  2.7969126693423493e-02  8.3798646626001921e-02  2.7220348833376473e-01  8.4569543789536306e-01  2.5080760456876878e+00  7.5775152893437880e+00  0.0000000000000000e+00  6.3399019295807768e-02  1.5753927688185657e-01  2.2410050565401982e-01  2.2996433442108435e-01  1.8933127819827505e-01  1.2936653210387153e-01  7.2833725225864704e-02  3.1167181929094671e-02  6.3444693200622555e-03  -4.9261967094952055e-03  -7.5111095579545924e-03  -5.7384513693139669e-03  -2.6294091415229610e-03  9.2586194423543872e-05  1.6794046860786498e-03  1.9969822626210018e-03  1.2371529494699897e-03  -2.7543350410763118e-04  -2.1979620019315495e-03  -4.2349439247253194e-03  -6.1879274247410238e-03  -8.0251303945494557e-03  -9.9787096008783476e-03  -1.2423722581034833e-02  -1.4191449819097618e-02  -4.1649476551689499e-03  7.0987457957828751e-02  4.1045950812109694e-01  1.7112816077693829e+00  6.4772918269228965e+00  0.0000000000000000e+00  6.4613163465578050e-02  1.4945390534331662e-01  1.9359567570988140e-01  1.7301119872747850e-01  1.1704264292022716e-01  5.9685819752825442e-02  1.9941865529536147e-02  2.3366757454924050e-04  -5.4204241589504848e-03  -4.3296696661713693e-03  -1.5941281879728719e-03  3.8152823749589866e-04  1.0659393575561465e-03  8.1857620072957847e-04  2.1444692992247534e-04  -2.8240264466147043e-04  -4.1294028937326443e-04  -1.0211696630723312e-04  6.0010491535301351e-04  1.5777075377058605e-03  2.6926458101124789e-03  3.7962009634021662e-03  4.6482258052361093e-03  4.5908938631761959e-03  2.1514439007381740e-03  -2.4926978687164294e-03  1.2508634346297854e-02  1.8715245898817565e-01  1.1402900564208716e+00  5.5014655313130776e+00  0.0000000000000000e+00  6.3044303142773511e-02  1.3578507776511864e-01  1.6010015025190921e-01  1.2372485349132949e-01  6.6809452024518448e-02  2.2544589321426205e-02  8.9971373140202305e-04  -4.3911472424819006e-03  -2.7867633984131465e-03  -4.2392379490070357e-04  6.3371125301854635e-04  5.6694555715686970e-04  1.2533559235529699e-04  -1.8091695092565599e-04  -2.1645737239302275e-04  -8.0974417114432621e-05  5.4978189250189475e-05  5.2218187776341975e-05  -1.5914201414841440e-04  -5.8074472878840518e-04  -1.1612555171112966e-03  -1.8034294862402677e-03  -2.3660582133207355e-03  -2.7682360978757829e-03  -3.7435324306888977e-03  -8.0755790177344557e-03  -1.2571557615693715e-02  6.3539288062785401e-02  7.4501242502898990e-01  4.6402862646731000e+00  0.0000000000000000e+00  5.9454088321121722e-02  1.1956688787513921e-01  1.2876862492440555e-01  8.5909112752203157e-02  3.5904042504337277e-02  5.9471836192790768e-03  -3.2561758654590968e-03  -2.5534369548183816e-03  -3.3920853705251988e-04  5.0593182813339795e-04  3.1931037648133689e-04  -2.3771243184870614e-05  -1.3355091562725706e-04  -5.8377576657349578e-05  3.7683072619009674e-05  6.3519738436902432e-05  2.9178724852109918e-05  4.3066145973553468e-07  4.7176363264221611e-05  2.1244110158685011e-04  5.0204978051733226e-04  8.8563578216885579e-04  1.3331762330961827e-03  1.8806743441009560e-03  2.5063567099018573e-03  1.1414971407149638e-03  -7.5207376307727981e-03  1.2792897290931367e-02  4.7302427016080573e-01  3.8844018539715850e+00  0.0000000000000000e+00  5.4541616092082183e-02  1.0289660149583717e-01  1.0192488456462821e-01  5.8986302862470405e-02  1.8476989705139488e-02  -1.7042327664100991e-04  -2.7855825861578371e-03  -7.8935262200081771e-04  3.5218573075219262e-04  2.7267628059658369e-04  -2.1209469241728603e-05  -8.9499677334699929e-05  -1.8191965182927806e-05  3.0417629557975410e-05  1.8407706592968596e-05  -1.2055102827849580e-05  -2.2771084234585591e-05  -1.4937918934910585e-05  -2.0373017925698648e-05  -7.7497389783154328e-05  -2.1278875002531813e-04  -4.3135461353062415e-04  -7.3694266229993081e-04  -1.0608363397531719e-03  -1.1611606266936567e-03  -1.2702661390187949e-03  -7.7115384843406713e-03  -1.3720926042532300e-02  2.8089790915893681e-01  3.2248580909869857e+00  0.0000000000000000e+00  4.8892095906480824e-02  8.7053833270768488e-02  8.0110860886918114e-02  4.0722195969782667e-02  9.2896467176732146e-03  -1.7972081386623303e-03  -1.6386766114202642e-03  -1.0140039551063521e-05  3.0300503435797910e-04  3.6910013075866064e-05  -6.9102292977487258e-05  -1.8089285745299458e-05  2.0514736857490535e-05  8.9458601344324558e-06  -7.5732550024552870e-06  -5.1007133432011677e-06  5.7937373389124339e-06  1.0571854505339655e-05  1.1980242089276674e-05  2.9183997441290673e-05  8.6938097167690737e-05  2.0082728712603640e-04  3.8308647583653563e-04  5.6242239200445150e-04  8.8349761376807154e-04  1.6055250550624776e-03  -7.5275232222553204e-04  -1.6975451631969663e-02  1.5789199689561262e-01  2.6530987323076194e+00  0.0000000000000000e+00  4.2961120035763738e-02  7.2705634007276337e-02  6.2940479237865610e-02  2.8701610105869791e-02  4.7166497998321101e-03  -1.8361104389066402e-03  -8.3320207115805092e-04  1.9024261428638901e-04  1.4985942085072660e-04  -3.7677379032890136e-05  -3.2278776102282001e-05  1.0598905500777259e-05  9.1153992995982180e-06  -4.2813468225218941e-06  -3.2212958796966896e-06  2.0999238042386777e-06  1.0435735801988731e-06  -3.5464281199659471e-06  -6.5797734510221936e-06  -1.1918030003406543e-05  -3.4468361734310308e-05  -8.6723059686043315e-05  -1.8997371063892996e-04  -3.1422789478311505e-04  -6.0654895998181067e-04  -2.8129707356278028e-04  -9.4711213385705365e-04  -1.6909117150415130e-02  7.1180877191505315e-02  2.1609654993316316e+00  0.0000000000000000e+00  3.7081261599185497e-02  6.0108586460257130e-02  4.9657406093372596e-02  2.0920234051261862e-02  2.5741037232625292e-03  -1.4722913674867636e-03  -4.1287977286031302e-04  1.8294059360143247e-04  5.8049612949978384e-05  -3.8099677853785610e-05  -6.9785868622093404e-06  9.7826537451402269e-06  1.6029736512725555e-07  -3.0743802465473348e-06  7.4825083869510866e-07  1.0557539192671145e-06  -5.8250679096629878e-07  1.6065516466796260e-07  2.5538840357801728e-06  5.0501862925455479e-06  1.3836573476722550e-05  3.3334957531890207e-05  9.3934432051764712e-05  1.6095728124005304e-04  3.0293070630952863e-04  3.9359170551562459e-04  1.8493684882652129e-03  -1.1287232595291387e-02  2.2232579466117782e-02  1.7406980782670280e+00  0.0000000000000000e+00  3.1479871064680531e-02  4.9271040276559860e-02  3.9444713639989547e-02  1.5906543837302913e-02  1.6602844601334270e-03  -1.1006989777585423e-03  -2.3081613700485804e-04  1.3377096663451407e-04  2.1968256302263251e-05  -2.4674661842044292e-05  6.2051525749179718e-07  4.8620622360362414e-06  -1.4246628894281424e-06  -8.4233308819064460e-07  7.6233252547868460e-07  -6.2872201499263371e-08  -3.0584830677120259e-07  1.0312035049749605e-07  -5.5106829194165570e-07  -1.7614597677993192e-06  -6.0367250240759690e-06  -1.0268999973622651e-05  -4.8109906422181917e-05  -5.8385145342153098e-05  -2.1330995403685786e-04  -2.6605836314511267e-04  5.2698590337694356e-04  -6.9846918720841518e-03  -1.0901074988179113e-02  1.3849341201316534e+00  0.0000000000000000e+00  2.6300456513028155e-02  4.0068533061228061e-02  3.1569272385634728e-02  1.2651068677563944e-02  1.3547386487787084e-03  -8.0743583698991836e-04  -1.6815364503532888e-04  9.0391032315477153e-05  1.3059138948889624e-05  -1.4642733754812140e-05  8.5967653285336304e-07  2.2604639211482660e-06  -8.1270376786704344e-07  -1.6346409382643605e-07  2.5385165586342048e-07  -1.0725066415900181e-07  1.3716503908106624e-09  6.1792811179978770e-08  1.3698529667278646e-07  2.2996551941304372e-07  3.0933653339850352e-06  1.0542610796965251e-06  2.5861950431503206e-05  1.0867890790487276e-05  1.5495826259756044e-04  -7.7607690124746850e-05  1.1781176690097072e-03  -2.6644574459958503e-03  -2.4816134450470234e-02  1.0867092407532004e+00  0.0000000000000000e+00  2.1623239149633645e-02  3.2318807776996451e-02  2.5431495983310778e-02  1.0486886736326589e-02  1.3500006154219129e-03  -5.7904775671957205e-04  -1.5809868178885263e-04  5.6968085908484361e-05  1.3929914826438868e-05  -8.4138033470442848e-06  -5.0273844999157573e-07  1.1781164493834616e-06  -1.9602720622270573e-07  -7.2660816257665436e-08  4.8044104745312115e-08  -2.2758720908024295e-08  7.1691937685315399e-09  1.2482538307416424e-08  -1.3169764715326821e-07  3.4507687873964740e-07  -2.1748532445995523e-06  2.8447710405076021e-06  -1.6627080077258448e-05  7.2581193187189023e-06  -7.6374693038886517e-05  -6.1465203827043346e-05  -2.3219980317481216e-06  1.3646649092683501e-04  -3.2595808168911306e-02  8.3945702076920725e-01  0.0000000000000000e+00  1.7482799441153621e-02  2.5826647137269076e-02  2.0567988254235253e-02  8.9808481715652529e-03  1.4941614983818771e-03  -3.8041379094577179e-04  -1.6622245293430963e-04  2.7535294277049916e-05  1.6479371634090932e-05  -3.5468527462658919e-06  -1.5503585423765684e-06  4.4318219523381577e-07  9.8639849130602551e-08  -2.1101297595030806e-08  1.0133959324093675e-09  3.0304754564039031e-09  -1.0349276649630246e-08  1.3542475080769815e-08  4.0478436120575008e-08  -2.9065445086868530e-07  1.3864056832000619e-06  -3.1299124001378978e-06  1.0845543722687508e-05  -1.3323892638060935e-05  5.3438808656542579e-05  -1.8970085738079325e-05  8.1506145645745791e-05  1.8583829584779298e-03  -3.1800185876951229e-02  6.3700900562705909e-01  0.0000000000000000e+00  1.3882174110403918e-02  2.0408121106463617e-02  1.6634789804200439e-02  7.8524864187449923e-03  1.7055931095999349e-03  -1.7974183801508977e-04  -1.7145729153679652e-04  -2.7873466163010868e-06  1.6115745491227070e-05  1.1876324985924979e-06  -1.4902416552121203e-06  -2.3247782742454330e-07  6.8547864139808554e-08  1.9941782852732672e-08  -8.6193071984477236e-11  1.0025978998258813e-08  -3.0137028579274261e-08  9.7036379589906350e-08  -3.1515158331820512e-07  9.5682103953356159e-07  -2.6597547321803562e-06  6.3445374411645783e-06  -1.5150772883187343e-05  2.8615187782936929e-05  -6.9378130963356112e-05  1.2459196445767427e-04  -5.0693076030269347e-04  2.7317727405666570e-03  -2.9367790984826090e-02  4.7359470558398675e-01  0.0000000000000000e+00  1.0803544394751015e-02  1.5901720808414409e-02  1.3385450576402244e-02  6.9200450305656521e-03  1.9296150259554229e-03  4.3353448750202420e-05  -1.5560152512818931e-04  -3.3702448771514690e-05  9.2630488226544417e-06  4.8260769306921125e-06  -1.3845590153682017e-09  -4.2388763636357811e-07  -1.1941080109800251e-07  -2.1106627709314230e-08  -8.5762118259507799e-09  6.2626595077865284e-09  -2.3566366861490031e-08  3.9477672152417622e-08  -1.4928528401077316e-08  -1.5540315342071913e-07  6.6920178740459652e-07  -1.6466611115316708e-06  2.9320922037472796e-06  -8.5402955558151200e-07  -1.0596444933280516e-05  9.0763831535967861e-05  -4.2089444092763951e-04  2.7903138517690550e-03  -2.4055683603821713e-02  3.4384159570706735e-01  0.0000000000000000e+00  8.2159979823537427e-03  1.2171629360510793e-02  1.0650162259919755e-02  6.0676492736042075e-03  2.1188448500247185e-03  2.9315454277463666e-04  -1.0103533094569926e-04  -5.7206923854929082e-05  -5.3143666114058037e-06  4.4036026092108148e-06  1.9053568892056998e-06  2.6766557542248839e-07  -4.0447161383533799e-08  -3.2445366540702305e-08  -9.3386731935974584e-09  2.8227048918331818e-09  -1.6878008931752431e-08  9.7307915955324676e-08  -3.3433231750060424e-07  1.0031065994686355e-06  -2.6131007273956417e-06  6.0611166515227089e-06  -1.3225261354671215e-05  2.7851146379803737e-05  -6.3322550425060675e-05  1.5994046966234893e-04  -5.5254160854246374e-04  2.5744074683857147e-03  -1.9053146866528783e-02  2.4277511587322406e-01  0.0000000000000000e+00  6.0809516731943208e-03  9.1065657240095230e-03  8.3179242482426790e-03  5.2270491238569916e-03  2.2277845939745861e-03  5.5389566469124345e-04  4.2171878685457049e-06  -5.7494034815421036e-05  -2.2506335756300266e-05  -2.4950420442665002e-06  1.4475914912191038e-06  9.7226884726409128e-07  3.8217263677485840e-07  1.4165031265004246e-07  6.3387620845057927e-08  2.8274299869521442e-08  2.6302044641290355e-08  -3.7981763762001291e-08  1.3896745540913485e-07  -3.9600752298932063e-07  7.9217813657718202e-07  -1.2455571729734260e-06  6.8635016534020154e-07  4.0441463526607970e-06  -2.3496798167899999e-05  9.8662465855616898e-05  -4.0344090841138753e-04  2.0206779872857651e-03  -1.3849320768594697e-02  1.6581867076922621e-01  0.0000000000000000e+00  4.3557718040662984e-03  6.6163404517792304e-03  6.3217014540122600e-03  4.3681265873940179e-03  2.2168859331890005e-03  7.8930049354303353e-04  1.5634196480748054e-04  -1.7119385808663571e-05  -2.8159104288177492e-05  -1.2479932202219414e-05  -3.3208214253627560e-06  -4.2300098505402619e-07  1.1724350876460659e-07  1.1539997918356268e-07  5.3348489436664558e-08  9.1796939237010359e-09  -2.3436752540763436e-08  2.5524201482328504e-08  -2.4566907406402106e-07  5.7409344062613804e-07  -1.5353046502987325e-06  3.2766895047479732e-06  -7.0056164293672943e-06  1.5047073599856307e-05  -3.5839977461214413e-05  9.9155003195082838e-05  -3.3986585411203236e-04  1.5025970992735770e-03  -9.6145496255628134e-03  1.0879362989168932e-01  0.0000000000000000e+00  2.9960888601138031e-03  4.6273906720172260e-03  4.6258057206270461e-03  3.4932655132534412e-03  2.0625172131274339e-03  9.5006740098141059e-04  3.2686150561064354e-04  6.9130501577236461e-05  -4.4343374063810746e-06  -1.3156742446962783e-05  -8.2158434974090524e-06  -3.8786573377516108e-06  -1.7071117071665995e-06  -7.9281812747129121e-07  -4.2528765510968006e-07  -2.6546571612046707e-07  -1.6626599951857497e-07  -2.0826588728431985e-07  1.0600469386637759e-07  -5.6112856123182600e-07  8.4794832063409767e-07  -1.4105792083190475e-06  1.2900733987436721e-06  8.9590064070482370e-07  -1.0977936352419583e-05  4.9411989227882726e-05  -2.0517575264738123e-04  9.7030352513429439e-04  -6.1203509062446879e-03  6.7919327547075067e-02  0.0000000000000000e+00  1.9571255371525352e-03  3.0780313982093034e-03  3.2146617612888737e-03  2.6316131055630879e-03  1.7681412201750548e-03  9.9131810493535526e-04  4.6502301886207939e-04  1.7997542391834701e-04  5.4232994400156082e-05  9.5865858361990753e-06  -2.2029348140047387e-06  -3.5398354460334400e-06  -2.5988650518938893e-06  -1.6170919668297649e-06  -9.7133051954242929e-07  -5.7855782250455948e-07  -3.7905658020732126e-07  -1.5634043984144360e-07  -3.1348593277069124e-07  2.7156013400262748e-07  -7.5232534463970703e-07  1.1511457265466934e-06  -2.1446532378461851e-06  4.2086820625195602e-06  -1.0641209261032556e-05  3.3218864128035558e-05  -1.2518640485622507e-04  5.7669013502451656e-04  -3.6039626694109239e-03  3.9813062851691158e-02  0.0000000000000000e+00  1.1944318041256356e-03  1.9138551738974276e-03  2.0824620829898704e-03  1.8305053380294741e-03  1.3704981779846782e-03  8.9536508225417392e-04  5.1810837418339540e-04  2.6865477868464964e-04  1.2613189198462213e-04  5.4157015653766467e-05  2.1449013125139631e-05  7.8973411012923014e-06  2.7022592760149150e-06  8.6538586655859725e-07  2.5719566171792049e-07  7.6524633727536779e-08  5.1835189858170436e-08  -4.1114542093092310e-08  1.5533593596582247e-07  -2.9959131572367557e-07  5.1351828877806191e-07  -8.3996082712116181e-07  1.0658841568988834e-06  -1.0100363677549733e-06  -8.9316627631884082e-07  1.0339251232907137e-05  -5.4597774131983938e-05  2.8630832858557117e-04  -1.8792375938795501e-03  2.1490099731691685e-02  0.0000000000000000e+00  6.6405821127928978e-04  1.0835103046913030e-03  1.2235851232975305e-03  1.1430881891479018e-03  9.3496697060490176e-04  6.8775324957512515e-04  4.6279201808524512e-04  2.8885457390678848e-04  1.6947522399073916e-04  9.4807204577863400e-05  5.1335070560140686e-05  2.7354136485908475e-05  1.4553378053429304e-05  7.8511746531810945e-06  4.3127066340096489e-06  2.4375603426433072e-06  1.3622667108223530e-06  8.4826919296095787e-07  3.1369014307770907e-07  4.4942391746477167e-07  -2.4336784379281484e-07  4.9500859854839431e-07  -5.3954854633252269e-07  5.7135215787278892e-07  -9.6683072779950251e-07  3.7080740139570699e-06  -2.0029073999723132e-05  1.1737331032933167e-04  -8.3960477367032798e-04  1.0363666923076623e-02  0.0000000000000000e+00  3.2268091628465654e-04  5.3517414120673296e-04  6.2426956677493438e-04  6.1341140543716671e-04  5.3821459962450030e-04  4.3334434501695235e-04  3.2541370657783041e-04  2.3061364122333255e-04  1.5577364405382240e-04  1.0122446841210346e-04  6.3821796392913717e-05  3.9372010101961505e-0