<?xml version="1.0"?>
<VTKFile type="UnstructuredGrid"  version="0.1"  >
<UnstructuredGrid>
<Piece  NumberOfPoints="961" NumberOfCells="1800">
<Points>
<DataArray  type="Float64"  NumberOfComponents="3"  format="ascii">-1 -1 0  -0.9333333333333333 -1 0  -0.8666666666666667 -1 0  -0.8 -1 0  -0.7333333333333334 -1 0  -0.6666666666666667 -1 0  -0.6 -1 0  -0.5333333333333333 -1 0  -0.4666666666666667 -1 0  -0.4 -1 0  -0.3333333333333334 -1 0  -0.2666666666666667 -1 0  -0.2 -1 0  -0.1333333333333333 -1 0  -0.06666666666666665 -1 0  0 -1 0  0.06666666666666665 -1 0  0.1333333333333333 -1 0  0.2 -1 0  0.2666666666666666 -1 0  0.3333333333333333 -1 0  0.3999999999999999 -1 0  0.4666666666666666 -1 0  0.5333333333333334 -1 0  0.6000000000000001 -1 0  0.6666666666666667 -1 0  0.7333333333333334 -1 0  0.8 -1 0  0.8666666666666667 -1 0  0.9333333333333333 -1 0  1 -1 0  -1 -0.9333333333333333 0  -0.9333333333333333 -0.9333333333333333 0  -0.8666666666666667 -0.9333333333333333 0  -0.8 -0.9333333333333333 0  -0.7333333333333334 -0.9333333333333333 0  -0.6666666666666667 -0.9333333333333333 0  -0.6 -0.9333333333333333 0  -0.5333333333333333 -0.9333333333333333 0  -0.4666666666666667 -0.9333333333333333 0  -0.4 -0.9333333333333333 0  -0.3333333333333334 -0.9333333333333333 0  -0.2666666666666667 -0.9333333333333333 0  -0.2 -0.9333333333333333 0  -0.1333333333333333 -0.9333333333333333 0  -0.06666666666666665 -0.9333333333333333 0  0 -0.9333333333333333 0  0.06666666666666665 -0.9333333333333333 0  0.1333333333333333 -0.9333333333333333 0  0.2 -0.9333333333333333 0  0.2666666666666666 -0.9333333333333333 0  0.3333333333333333 -0.9333333333333333 0  0.3999999999999999 -0.9333333333333333 0  0.4666666666666666 -0.9333333333333333 0  0.5333333333333334 -0.9333333333333333 0  0.6000000000000001 -0.9333333333333333 0  0.6666666666666667 -0.9333333333333333 0  0.7333333333333334 -0.9333333333333333 0  0.8 -0.9333333333333333 0  0.8666666666666667 -0.9333333333333333 0  0.9333333333333333 -0.9333333333333333 0  1 -0.9333333333333333 0  -1 -0.8666666666666667 0  -0.9333333333333333 -0.8666666666666667 0  -0.8666666666666667 -0.8666666666666667 0  -0.8 -0.8666666666666667 0  -0.7333333333333334 -0.8666666666666667 0  -0.6666666666666667 -0.8666666666666667 0  -0.6 -0.8666666666666667 0  -0.5333333333333333 -0.8666666666666667 0  -0.4666666666666667 -0.8666666666666667 0  -0.4 -0.8666666666666667 0  -0.3333333333333334 -0.8666666666666667 0  -0.2666666666666667 -0.8666666666666667 0  -0.2 -0.8666666666666667 0  -0.1333333333333333 -0.8666666666666667 0  -0.06666666666666665 -0.8666666666666667 0  0 -0.8666666666666667 0  0.06666666666666665 -0.8666666666666667 0  0.1333333333333333 -0.8666666666666667 0  0.2 -0.8666666666666667 0  0.2666666666666666 -0.8666666666666667 0  0.3333333333333333 -0.8666666666666667 0  0.3999999999999999 -0.8666666666666667 0  0.4666666666666666 -0.8666666666666667 0  0.5333333333333334 -0.8666666666666667 0  0.6000000000000001 -0.8666666666666667 0  0.6666666666666667 -0.8666666666666667 0  0.7333333333333334 -0.8666666666666667 0  0.8 -0.8666666666666667 0  0.8666666666666667 -0.8666666666666667 0  0.9333333333333333 -0.8666666666666667 0  1 -0.8666666666666667 0  -1 -0.8 0  -0.9333333333333333 -0.8 0  -0.8666666666666667 -0.8 0  -0.8 -0.8 0  -0.7333333333333334 -0.8 0  -0.6666666666666667 -0.8 0  -0.6 -0.8 0  -0.5333333333333333 -0.8 0  -0.4666666666666667 -0.8 0  -0.4 -0.8 0  -0.3333333333333334 -0.8 0  -0.2666666666666667 -0.8 0  -0.2 -0.8 0  -0.1333333333333333 -0.8 0  -0.06666666666666665 -0.8 0  0 -0.8 0  0.06666666666666665 -0.8 0  0.1333333333333333 -0.8 0  0.2 -0.8 0  0.2666666666666666 -0.8 0  0.3333333333333333 -0.8 0  0.3999999999999999 -0.8 0  0.4666666666666666 -0.8 0  0.5333333333333334 -0.8 0  0.6000000000000001 -0.8 0  0.6666666666666667 -0.8 0  0.7333333333333334 -0.8 0  0.8 -0.8 0  0.8666666666666667 -0.8 0  0.9333333333333333 -0.8 0  1 -0.8 0  -1 -0.7333333333333334 0  -0.9333333333333333 -0.7333333333333334 0  -0.8666666666666667 -0.7333333333333334 0  -0.8 -0.7333333333333334 0  -0.7333333333333334 -0.7333333333333334 0  -0.6666666666666667 -0.7333333333333334 0  -0.6 -0.7333333333333334 0  -0.5333333333333333 -0.7333333333333334 0  -0.4666666666666667 -0.7333333333333334 0  -0.4 -0.7333333333333334 0  -0.3333333333333334 -0.7333333333333334 0  -0.2666666666666667 -0.7333333333333334 0  -0.2 -0.7333333333333334 0  -0.1333333333333333 -0.7333333333333334 0  -0.06666666666666665 -0.7333333333333334 0  0 -0.7333333333333334 0  0.06666666666666665 -0.7333333333333334 0  0.1333333333333333 -0.7333333333333334 0  0.2 -0.7333333333333334 0  0.2666666666666666 -0.7333333333333334 0  0.3333333333333333 -0.7333333333333334 0  0.3999999999999999 -0.7333333333333334 0  0.4666666666666666 -0.7333333333333334 0  0.5333333333333334 -0.7333333333333334 0  0.6000000000000001 -0.7333333333333334 0  0.6666666666666667 -0.7333333333333334 0  0.7333333333333334 -0.7333333333333334 0  0.8 -0.7333333333333334 0  0.8666666666666667 -0.7333333333333334 0  0.9333333333333333 -0.7333333333333334 0  1 -0.7333333333333334 0  -1 -0.6666666666666667 0  -0.9333333333333333 -0.6666666666666667 0  -0.8666666666666667 -0.6666666666666667 0  -0.8 -0.6666666666666667 0  -0.7333333333333334 -0.6666666666666667 0  -0.6666666666666667 -0.6666666666666667 0  -0.6 -0.6666666666666667 0  -0.5333333333333333 -0.6666666666666667 0  -0.4666666666666667 -0.6666666666666667 0  -0.4 -0.6666666666666667 0  -0.3333333333333334 -0.6666666666666667 0  -0.2666666666666667 -0.6666666666666667 0  -0.2 -0.6666666666666667 0  -0.1333333333333333 -0.6666666666666667 0  -0.06666666666666665 -0.6666666666666667 0  0 -0.6666666666666667 0  0.06666666666666665 -0.6666666666666667 0  0.1333333333333333 -0.6666666666666667 0  0.2 -0.6666666666666667 0  0.2666666666666666 -0.6666666666666667 0  0.3333333333333333 -0.6666666666666667 0  0.3999999999999999 -0.6666666666666667 0  0.4666666666666666 -0.6666666666666667 0  0.5333333333333334 -0.6666666666666667 0  0.6000000000000001 -0.6666666666666667 0  0.6666666666666667 -0.6666666666666667 0  0.7333333333333334 -0.6666666666666667 0  0.8 -0.6666666666666667 0  0.8666666666666667 -0.6666666666666667 0  0.9333333333333333 -0.6666666666666667 0  1 -0.6666666666666667 0  -1 -0.6 0  -0.9333333333333333 -0.6 0  -0.8666666666666667 -0.6 0  -0.8 -0.6 0  -0.7333333333333334 -0.6 0  -0.6666666666666667 -0.6 0  -0.6 -0.6 0  -0.5333333333333333 -0.6 0  -0.4666666666666667 -0.6 0  -0.4 -0.6 0  -0.3333333333333334 -0.6 0  -0.2666666666666667 -0.6 0  -0.2 -0.6 0  -0.1333333333333333 -0.6 0  -0.06666666666666665 -0.6 0  0 -0.6 0  0.06666666666666665 -0.6 0  0.1333333333333333 -0.6 0  0.2 -0.6 0  0.2666666666666666 -0.6 0  0.3333333333333333 -0.6 0  0.3999999999999999 -0.6 0  0.4666666666666666 -0.6 0  0.5333333333333334 -0.6 0  0.6000000000000001 -0.6 0  0.6666666666666667 -0.6 0  0.7333333333333334 -0.6 0  0.8 -0.6 0  0.8666666666666667 -0.6 0  0.9333333333333333 -0.6 0  1 -0.6 0  -1 -0.5333333333333333 0  -0.9333333333333333 -0.5333333333333333 0  -0.8666666666666667 -0.5333333333333333 0  -0.8 -0.5333333333333333 0  -0.7333333333333334 -0.5333333333333333 0  -0.6666666666666667 -0.5333333333333333 0  -0.6 -0.5333333333333333 0  -0.5333333333333333 -0.5333333333333333 0  -0.4666666666666667 -0.5333333333333333 0  -0.4 -0.5333333333333333 0  -0.3333333333333334 -0.5333333333333333 0  -0.2666666666666667 -0.5333333333333333 0  -0.2 -0.5333333333333333 0  -0.1333333333333333 -0.5333333333333333 0  -0.06666666666666665 -0.5333333333333333 0  0 -0.5333333333333333 0  0.06666666666666665 -0.5333333333333333 0  0.1333333333333333 -0.5333333333333333 0  0.2 -0.5333333333333333 0  0.2666666666666666 -0.5333333333333333 0  0.3333333333333333 -0.5333333333333333 0  0.3999999999999999 -0.5333333333333333 0  0.4666666666666666 -0.5333333333333333 0  0.5333333333333334 -0.5333333333333333 0  0.6000000000000001 -0.5333333333333333 0  0.6666666666666667 -0.5333333333333333 0  0.7333333333333334 -0.5333333333333333 0  0.8 -0.5333333333333333 0  0.8666666666666667 -0.5333333333333333 0  0.9333333333333333 -0.5333333333333333 0  1 -0.5333333333333333 0  -1 -0.4666666666666667 0  -0.9333333333333333 -0.4666666666666667 0  -0.8666666666666667 -0.4666666666666667 0  -0.8 -0.4666666666666667 0  -0.7333333333333334 -0.4666666666666667 0  -0.6666666666666667 -0.4666666666666667 0  -0.6 -0.4666666666666667 0  -0.5333333333333333 -0.4666666666666667 0  -0.4666666666666667 -0.4666666666666667 0  -0.4 -0.4666666666666667 0  -0.3333333333333334 -0.4666666666666667 0  -0.2666666666666667 -0.4666666666666667 0  -0.2 -0.4666666666666667 0  -0.1333333333333333 -0.4666666666666667 0  -0.06666666666666665 -0.4666666666666667 0  0 -0.4666666666666667 0  0.06666666666666665 -0.4666666666666667 0  0.1333333333333333 -0.4666666666666667 0  0.2 -0.4666666666666667 0  0.2666666666666666 -0.4666666666666667 0  0.3333333333333333 -0.4666666666666667 0  0.3999999999999999 -0.4666666666666667 0  0.4666666666666666 -0.4666666666666667 0  0.5333333333333334 -0.4666666666666667 0  0.6000000000000001 -0.4666666666666667 0  0.6666666666666667 -0.4666666666666667 0  0.7333333333333334 -0.4666666666666667 0  0.8 -0.4666666666666667 0  0.8666666666666667 -0.4666666666666667 0  0.9333333333333333 -0.4666666666666667 0  1 -0.4666666666666667 0  -1 -0.4 0  -0.9333333333333333 -0.4 0  -0.8666666666666667 -0.4 0  -0.8 -0.4 0  -0.7333333333333334 -0.4 0  -0.6666666666666667 -0.4 0  -0.6 -0.4 0  -0.5333333333333333 -0.4 0  -0.4666666666666667 -0.4 0  -0.4 -0.4 0  -0.3333333333333334 -0.4 0  -0.2666666666666667 -0.4 0  -0.2 -0.4 0  -0.1333333333333333 -0.4 0  -0.06666666666666665 -0.4 0  0 -0.4 0  0.06666666666666665 -0.4 0  0.1333333333333333 -0.4 0  0.2 -0.4 0  0.2666666666666666 -0.4 0  0.3333333333333333 -0.4 0  0.3999999999999999 -0.4 0  0.4666666666666666 -0.4 0  0.5333333333333334 -0.4 0  0.6000000000000001 -0.4 0  0.6666666666666667 -0.4 0  0.7333333333333334 -0.4 0 
[...]
<PointData  Scalars="f_24"> 
<DataArray  type="Float64"  Name="f_24"  format="ascii">0.0000000000000000e+00  0.0000000000000000e+00  0.0000000000000000e+00  0.0000000000000000e+00  0.0000000000000000e+00  0.0000000000000000e+00  0.0000000000000000e+00  0.0000000000000000e+00  0.0000000000000000e+00  0.0000000000000000e+00  0.0000000000000000e+00  0.0000000000000000e+00  0.0000000000000000e+00  0.0000000000000000e+00  0.0000000000000000e+00  0.0000000000000000e+00  0.0000000000000000e+00  0.0000000000000000e+00  0.0000000000000000e+00  0.0000000000000000e+00  0.0000000000000000e+00  0.0000000000000000e+00  0.0000000000000000e+00  0.0000000000000000e+00  0.0000000000000000e+00  0.0000000000000000e+00  0.0000000000000000e+00  0.0000000000000000e+00  0.0000000000000000e+00  0.0000000000000000e+00  1.0304582737330270e+01  0.0000000000000000e+00  5.0245988253618715e-02  9.7646973292061637e-02  1.4226075630981663e-01  1.8452104137505212e-01  2.2487603628610586e-01  2.6378902556096195e-01  3.0175305377245071e-01  3.3930362475312997e-01  3.7703258832692965e-01  4.1560283846032048e-01  4.5576610924337646e-01  4.9838682432945980e-01  5.4447533627450539e-01  5.9523461993704019e-01  6.5212574867041917e-01  7.1695953305192595e-01  7.9202512886986520e-01  8.8027171369711987e-01  9.8556762425481748e-01  1.1130744225132032e+00  1.2697945572387337e+00  1.4653870296109726e+00  1.7134086821201417e+00  2.0332581776689151e+00  2.4533416799301393e+00  3.0165013795407503e+00  3.7901056121420678e+00  4.8862353244451358e+00  6.5109320346404971e+00  8.9978217074588773e+00  0.0000000000000000e+00  9.7013716506678629e-02  1.8265236737170157e-01  2.5356742192554194e-01  3.0887478979531108e-01  3.4911733151884955e-01  3.7579192620305990e-01  3.9090784994117433e-01  3.9664234625040728e-01  3.9510359389103311e-01  3.8818967291387191e-01  3.7752591939037267e-01  3.6445827786019591e-01  3.5008328234821195e-01  3.3530094131472288e-01  3.2088325286948804e-01  3.0755812356044793e-01  2.9611615798627894e-01  2.8755766800466515e-01  2.8331218172540795e-01  2.8558760887974993e-01  2.9794981384285157e-01  3.2631160271426074e-01  3.8065456283475940e-01  4.7808306331791561e-01  6.4837141792938147e-01  9.4443934428885701e-01  1.4632270541471262e+00  2.3928908184366793e+00  4.1320773506425850e+00  7.8194735888845361e+00  0.0000000000000000e+00  1.3829049247536201e-01  2.4853819754809742e-01  3.2129228239947627e-01  3.5637080958603318e-01  3.5942590674101943e-01  3.3879876836162226e-01  3.0307001696731289e-01  2.5961837592017395e-01  2.1403542931457217e-01  1.7011305311275515e-01  1.3012780840743476e-01  9.5221146031731138e-02  6.5761224086252998e-02  4.1636410874646090e-02  2.2470769120211218e-02  7.7720283037225179e-03  -2.9692457624829680e-03  -1.0206919420245325e-02  -1.4265115899762032e-02  -1.5219703309798892e-02  -1.2654878246825213e-02  -5.1273866924267750e-03  1.1019544009391296e-02  4.4261787931586041e-02  1.1357520699128364e-01  2.6080384164269860e-01  5.7847977774390202e-01  1.2745310205717313e+00  2.8585218453486445e+00  6.7608367339623898e+00  0.0000000000000000e+00  1.7299882471021960e-01  2.9389885051844522e-01  3.4804100809891653e-01  3.4325189430981279e-01  2.9888870130026401e-01  2.3578822545402439e-01  1.7034698411126439e-01  1.1268610933155367e-01  6.7360825526626811e-02  3.5069667242811721e-02  1.4360264430214780e-02  2.9025139729889895e-03  -1.7310240225133727e-03  -1.6752773137454810e-03  1.3637553859778486e-03  6.1050209730168694e-03  1.1623249065842606e-02  1.7257623364270142e-02  2.2519989061984800e-02  2.7014896773550640e-02  3.0390482054803929e-02  3.2381414582159679e-02  3.3146750055632383e-02  3.4509191345277551e-02  4.3777719704821312e-02  8.4597004951165636e-02  2.2582725984333865e-01  6.6122440380295744e-01  1.9308122146939914e+00  5.8135148160175776e+00  0.0000000000000000e+00  2.0078333064917761e-01  3.2077177586406308e-01  3.4441873103726167e-01  2.9673405232268218e-01  2.1656862522458786e-01  1.3598870446578240e-01  7.2575674062581655e-02  3.1088275294245016e-02  8.6648095354303050e-03  -3.7487189865119229e-04  -1.5700664636596195e-03  9.2273611713399831e-04  4.5031688406036389e-03  7.8259498983021432e-03  1.0391789371604829e-02  1.2194638645858827e-02  1.3469054721670624e-02  1.4526041359866957e-02  1.5648516753624955e-02  1.7017241617656546e-02  1.8642058730686823e-02  2.0279098733054529e-02  2.1344365575235263e-02  2.1032469194460526e-02  1.9693104322263150e-02  2.5399438635595750e-02  7.8847494876364596e-02  3.3288573636195518e-01  1.3226261201534706e+00  4.9694168293452314e+00  0.0000000000000000e+00  2.2184914223277724e-01  3.3294151717001280e-01  3.2258674330390985e-01  2.3986257104425343e-01  1.4270193358941591e-01  6.6836972840102843e-02  2.2084595817898331e-02  2.6062001760508700e-03  -1.9910585377349624e-03  -3.0201351848340553e-04  2.6694087257397537e-03  4.8928886603688757e-03  6.0685520055399119e-03  6.6183267642115377e-03  7.1063804137168922e-03  7.9955828518102501e-03  9.5933328814665989e-03  1.2073756469481899e-02  1.5509099651842287e-02  1.9876127527087450e-02  2.5023405713836530e-02  3.0592776739524125e-02  3.5875652603044025e-02  3.9540481696159181e-02  3.9426079581686924e-02  3.4700154513393387e-02  4.1539278675507725e-02  1.6742928933345139e-01  8.8767941924441651e-01  4.2207570892104789e+00  0.0000000000000000e+00  2.3677963297541615e-01  3.3459115640433224e-01  2.9262988680303670e-01  1.8658431828245592e-01  8.8088618235988195e-02  2.7802431499107105e-02  2.7807772095386628e-03  -2.2125500786306768e-03  -1.7170404178179385e-04  2.3065461207303546e-03  3.4397625427163262e-03  3.5810736108669240e-03  3.4755022064660098e-03  3.6024491232500245e-03  4.1303779990715704e-03  5.0699577604609251e-03  6.4226949324338129e-03  8.2664959736563366e-03  1.0777440155891160e-02  1.4193596179029419e-02  1.8718337877309560e-02  2.4365016220302078e-02  3.0758816348366188e-02  3.6893854455527751e-02  4.0588831851721394e-02  3.7906763435303976e-02  3.0048006550205470e-02  7.8838250450109990e-02  5.8796344273884593e-01  3.5600552318484437e+00  0.0000000000000000e+00  2.4636147809500122e-01  3.2948418829892800e-01  2.6143934944451169e-01  1.4294352848985503e-01  5.2221163190346698e-02  9.0226579327735406e-03  -2.0672958362790020e-03  -9.2837472218563393e-04  1.4689600846757530e-03  2.2814653845599935e-03  2.0815058138954536e-03  1.7720143148052133e-03  1.7086705666527814e-03  1.8696248731089860e-03  2.1684107422308865e-03  2.6143467427606998e-03  3.3435890226413230e-03  4.6047365724968935e-03  6.7443262709079663e-03  1.0186369245828171e-02  1.5361336322441858e-02  2.2522516789559532e-02  3.1442671296525962e-02  4.1070824937365434e-02  4.9231202190907743e-02  5.1496704085806359e-02  4.1394561100286151e-02  4.6236447190976727e-02  3.8276410529087862e-01  2.9801362144642476e+00  0.0000000000000000e+00  2.5144497793286813e-01  3.2060880074001114e-01  2.3301644733684462e-01  1.1008504471417217e-01  3.0504112521120435e-02  1.2749699882913335e-03  -2.0693551670299005e-03  4.0663439292415302e-04  1.5653887819766627e-03  1.3635120959812287e-03  9.6950125098874454e-04  8.0896785329344595e-04  7.9328334384247520e-04  8.0275839967357027e-04  8.3928558572713926e-04  9.8363355319537995e-04  1.3480386828322998e-03  2.0903118345750012e-03  3.4776090683993344e-03  5.9593526595768552e-03  1.0180528209311151e-02  1.6829561931770091e-02  2.6196166298153349e-02  3.7543192647107135e-02  4.8586825641419910e-02  5.5150434074372444e-02  4.8474815574110430e-02  3.2295542340310582e-02  2.3904844123102553e-01  2.4741303152329972e+00  0.0000000000000000e+00  2.5284681828068190e-01  3.1012554872743386e-01  2.0927375076098331e-01  8.6849280498782044e-02  1.8144812953195335e-02  -1.3501986750907788e-03  -1.1726101996569465e-03  8.7271937712656142e-04  1.0826819494974490e-03  6.5515948784399230e-04  4.2371164579725601e-04  3.6068052066603979e-04  3.0643982577075287e-04  2.4527292407624743e-04  2.2366625439136173e-04  2.7223891527880409e-04  4.2104717421286941e-04  7.6314771779651845e-04  1.5378586307854254e-03  3.2322190617376173e-03  6.6662908613958653e-03  1.2924440608290025e-02  2.2922234434453535e-02  3.6399539984042273e-02  5.0998764773164486e-02  6.1891626830037592e-02  6.0599979882961251e-02  3.6144332597487359e-02  1.4823809730775339e-01  2.0354731332998073e+00  0.0000000000000000e+00  2.5129663933115415e-01  2.9946693354703802e-01  1.9082883411940443e-01  7.1388034107547502e-02  1.1524316388153240e-02  -1.9368326944138358e-03  -5.0836225188044960e-04  8.3485644896638287e-04  6.2870056230998942e-04  2.8866826925717819e-04  1.9056110240383246e-04  1.4771860475063864e-04  8.6856945057278890e-05  4.4233725161199096e-05  3.3842976316595188e-05  4.2738161437078444e-05  7.5265493342796714e-05  1.8623094194242202e-04  5.3447376967882788e-04  1.5084520183371120e-03  3.9158969066736618e-03  9.0915164105352161e-03  1.8547485481815073e-02  3.2878027679724822e-02  4.9849766216556325e-02  6.4193989665140880e-02  6.6887705917766771e-02  4.2431279567431278e-02  8.5307309456628386e-02  1.6579055887797751e+00  0.0000000000000000e+00  2.4740809300970135e-01  2.8949128007720171e-01  1.7759909444131100e-01  6.1964623782709762e-02  8.3198748019686179e-03  -1.8581637958478437e-03  -1.9594553084423082e-04  6.4975640016464342e-04  3.4536227474063258e-04  1.2728295967588362e-04  8.9379494771244563e-05  5.3755536896660590e-05  1.4316283804417357e-05  2.6376258592390442e-08  -1.0509300430673669e-06  -3.4140840981873063e-06  -4.2437258307690140e-06  1.6231430421304969e-05  1.3719167305858613e-04  6.3927138899719314e-04  2.2741946555841163e-03  6.5289182602970121e-03  1.5487200543591687e-02  3.0547568816930562e-02  5.0217630744070506e-02  6.7988622636859050e-02  7.5120135830076262e-02  5.2831448795187232e-02  5.1168052855633347e-02  1.3354739227580028e+00  0.0000000000000000e+00  2.4168100782115209e-01  2.8063057452787421e-01  1.6918694942425327e-01  5.7250251237104241e-02  7.2180583239644033e-03  -1.6261962735898438e-03  -1.2270286051421851e-04  4.7490667967601261e-04  1.9805685815483718e-04  5.8725184782859272e-05  4.3441572388027031e-05  1.8526502341772131e-05  -1.1529272419059916e-06  -2.8262978438203779e-06  -1.6164457761971924e-06  -3.3467890049495530e-06  -6.9418259202170507e-06  -1.3485882566659471e-05  3.7407065681284078e-06  2.2383155095324634e-04  1.2782923789470338e-03  4.6887534140764324e-03  1.2904743586685061e-02  2.8205864308140174e-02  4.9619516838510742e-02  7.0569339999429784e-02  7.9965458778433432e-02  6.2002724764631763e-02  2.9032666936890900e-02  1.0625296972895819e+00  0.0000000000000000e+00  2.3449870179164289e-01  2.7301441697138912e-01  1.6508847397973214e-01  5.6372616649777198e-02  7.5970525387253646e-03  -1.3630789466868673e-03  -1.8650439957374943e-04  3.4453919402626694e-04  1.3125314787191259e-04  2.8562465837446249e-05  2.1726667706344356e-05  7.6987447751577734e-06  -1.9595058553034421e-06  -1.2258184220106583e-06  -7.7981877025163609e-08  -9.8555084151349010e-08  -8.7493568219029879e-07  -8.7049438305030362e-06  -2.4263917508551497e-05  5.4269081290931226e-05  7.5546179265482125e-04  3.5843590324387995e-03  1.1347147487010639e-02  2.6920381398529383e-02  5.0264068299748978e-02  7.3983469878726671e-02  8.6195104066272329e-02  7.0954874110411653e-02  2.1384265898794528e-02  8.3372979539960068e-01  0.0000000000000000e+00  2.2615520592678132e-01  2.6656038069522386e-01  1.6479613319019182e-01  5.8859836748215606e-02  9.3046805064074794e-03  -1.0073860970800030e-03  -3.3070709640948306e-04  2.4199398997897504e-04  1.0825644368321811e-04  1.6236538514119973e-05  1.0191360027784955e-05  4.8667447368793871e-06  -4.8547808177594068e-07  -5.3111896079902761e-07  6.5186691405822360e-09  3.4167537778281698e-07  1.4867999118371801e-06  -2.3202448680908616e-06  -2.5874574357736922e-05  -1.3873639230121717e-05  4.8964755865072394e-04  3.0086459791004504e-03  1.0546687826640628e-02  2.6608585695706666e-02  5.1366624045853571e-02  7.7729966418333629e-02  9.0992983407008329e-02  7.8425100047279886e-02  1.8155898259344078e-02  6.4403642108314185e-01  0.0000000000000000e+00  2.1685196750535388e-01  2.6103436221862758e-01  1.6781311580513922e-01  6.4552732791200232e-02  1.2532576937728674e-02  -3.6363192101056431e-04  -5.1600906434416758e-04  1.3160841617352079e-04  1.0641238444978789e-04  1.7050083427644287e-05  3.0761525405477966e-06  3.0330410073027184e-06  8.7356333844176525e-07  5.5757915904308777e-08  -2.1253195918910667e-07  -1.0940503485597352e-07  2.2066541990376218e-06  9.6854159605534390e-07  -2.6030486184005899e-05  -4.3623407441740041e-05  4.0213032426799727e-04  2.8912621110536215e-03  1.0694329518197135e-02  2.7552612539166531e-02  5.4021725705748522e-02  8.2278221014811484e-02  9.6824508420732605e-02  8.4706836317793549e-02  2.1140164386233836e-02  4.8871709930528351e-01  0.0000000000000000e+00  2.0673418352604384e-01  2.5609509156470062e-01  1.7364228419104824e-01  7.3509524968464551e-02  1.7767918709804421e-02  9.4018464410551322e-04  -6.6024883286089147e-04  -2.8599120537718846e-05  1.0011307314221094e-04  3.1732948612848585e-05  2.0096699754415359e-06  -2.4304457020859464e-08  3.8667723705286942e-07  -6.1091438510031878e-08  -6.3108630827124978e-07  -4.3282651392018113e-08  3.6871699516879237e-06  1.0375769834375178e-06  -3.5555427684214020e-05  -5.6319914338479517e-05  4.6235882256391732e-04  3.2872767155261891e-03  1.1852142337469930e-02  3.0096719551417940e-02  5.8091022479327459e-02  8.7902288659363642e-02  1.0222068899497970e-01  8.9855993974777948e-02  2.4932024282169531e-02  3.6334467600109860e-01  0.0000000000000000e+00  1.9588081564782550e-01  2.5130825962319986e-01  1.8172129978084148e-01  8.5887095731695284e-02  2.5766623314804751e-02  3.5540807634710241e-03  -5.3125982590951912e-04  -2.5587588516468891e-04  4.2449475040275379e-05  5.0174715645387620e-05  1.4050924622957302e-05  8.6491980179902281e-07  -1.0365425743653067e-06  -1.1063930261953279e-06  -4.1870333428608160e-07  2.3430141399682645e-06  5.9434488944888602e-06  -7.6362207312087299e-06  -6.0687480745530621e-05  -3.9684971878004542e-05  7.6937929277022792e-04  4.3852807669133055e-03  1.4443260494448829e-02  3.4554723724669126e-02  6.4256365561013412e-02  9.4562006235315535e-02  1.0818492490895185e-01  9.3780449209107899e-02  3.0424072963591151e-02  2.6379731807565493e-01  0.0000000000000000e+00  1.8433649788626102e-01  2.4617638511113810e-01  1.9137304685498102e-01  1.0181273676797359e-01  3.7521818069313657e-02  8.5493805296704157e-03  4.5063561027942049e-04  -4.2916242012977295e-04  -1.2195235677823382e-04  2.2856309805234170e-05  2.9941368143585651e-05  1.4320208098777397e-05  6.0081014078490716e-06  3.8520208853780189e-06  5.1558993424177401e-06  6.7739001727809583e-06  -1.1547262432334562e-06  -4.0783122925563506e-05  -9.3250570061813567e-05  1.1294314766449472e-04  1.5922039377997562e-03  6.6982023373965190e-03  1.9019796396141368e-02  4.1577741693422605e-02  7.2606793663671065e-02  1.0250355688624356e-01  1.1386740007069762e-01  9.6706130742879093e-02  3.5062817223563116e-02  1.8625851340401547e-01  0.0000000000000000e+00  1.7210874823046232e-01  2.4012607238950082e-01  2.0171187166925272e-01  1.2117651120488569e-01  5.4125116868285486e-02  1.7523893017387101e-02  3.5092535270880381e-03  -4.1849593146797888e-07  -3.0989544045975528e-04  -1.2571047945623040e-04  -2.0066494753827199e-05  8.2785273285532138e-06  1.0779430657450000e-05  8.2316005423856513e-06  3.0446868482808753e-06  -1.2060801942552804e-05  -4.8615522386862393e-05  -9.7358268315519351e-05  -1.3284049685935921e-05  7.5103429356740035e-04  3.6056345344058294e-03  1.1119947941679019e-02  2.6570305208294134e-02  5.1742738353407786e-02  8.3515761191808993e-02  1.1139616592931968e-01  1.1937163411563650e-01  9.8361957667417177e-02  3.9178378083298215e-02  1.2721707083123796e-01  0.0000000000000000e+00  1.5916955401147673e-01  2.3254587015529019e-01  2.1159224889437817e-01  1.4341909513810541e-01  7.6502596109168763e-02  3.2581071328105574e-02  1.0860637737114145e-02  2.5575031033096035e-03  1.8891569502431387e-04  -2.1745595189531561e-04  -1.7805220193932789e-04  -1.0684259726298640e-04  -6.9164462627360008e-05  -5.9268019706770099e-05  -6.9130291584736632e-05  -9.2004868941131487e-05  -9.6378833501707721e-05  4.5610650491458847e-05  7.2276079114817987e-04  2.8515930604686760e-03  8.1657128686461831e-03  1.9177838644040698e-02  3.8294178663496832e-02  6.5742985772117055e-02  9.6826007332776298e-02  1.2095048861098298e-01  1.2394678739999172e-01  9.8755733487251002e-02  4.1766137854700014e-02  8.3467120172375231e-02  0.0000000000000000e+00  1.4549741084862414e-01  2.2276854772024512e-01  2.1954110205755642e-01  1.6721116196856345e-01  1.0486915542893388e-01  5.5897810689490762e-02  2.5796277305476546e-02  1.0417306043544228e-02  3.6851036123950465e-03  1.1142347448991081e-03  2.5038357285994781e-04  -2.0167983115150810e-06  -5.8522450274422721e-05  -5.1350801096586204e-05  1.7998311236859757e-07  1.4666109831315926e-04  5.4033267501156349e-04  1.5293611046007462e-03  3.8135221511613202e-03  8.6045268476944436e-03  1.7671648250045680e-02  3.2944895607603414e-02  5.5509051885106256e-02  8.3798648464207801e-02  1.1206886961370043e-01  1.3024978355286146e-01  1.2706872394182014e-01  9.7525408081865939e-02  4.2936560494376552e-02  5.2108112212475077e-02  0.0000000000000000e+00  1.3099782284554770e-01  2.1011716268349126e-01  2.2375204247751379e-01  1.9022288416232352e-01  1.3802144223949292e-01  8.8754710954015159e-02  5.2045159621125187e-02  2.8596283545561194e-02  1.5180047599712367e-02  8.0873938653051244e-03  4.5404788317282606e-03  2.8508174021606779e-03  2.1275257028334940e-03  1.9661593804151420e-03  2.2512317136256874e-03  3.0738216599915267e-03  4.7325645174293267e-03  7.7859356675824398e-03  1.3111298903880606e-02  2.1895335461227131e-02  3.5432116542281837e-02  5.4584098885561011e-02  7.8862720701376510e-02  1.0530634209900364e-01  1.2785959127672436e-01  1.3804888736217374e-01  1.2779646500729180e-01  9.4438372746107987e-02  4.2421710357023759e-02  3.0544818706580195e-02  0.0000000000000000e+00  1.1565914668919688e-01  1.9392812051400493e-01  2.2215251419071089e-01  2.0891418815718849e-01  1.7243655927651277e-01  1.2977172596935257e-01  9.1642193417598022e-02  6.2333417333251789e-02  4.1933939860490460e-02  2.8692912551487600e-02  2.0553428689045646e-02  1.5841784164058740e-02  1.3431603102985114e-02  1.2685215079878423e-02  1.3348842660797946e-02  1.5472390572560158e-02  1.9362218781270462e-02  2.5544880015171089e-02  3.4700409800727000e-02  4.7507258683884258e-02  6.4348774863895716e-02  8.4832378341978459e-02  1.0723680143714238e-01  1.2799695688240439e-01  1.4182174151661381e-01  1.4249365593702934e-01  1.2518090273958429e-01  8.9107614698296422e-02  4.0311201924856301e-02  1.6487332379728416e-02  0.0000000000000000e+00  9.9304344212501103e-02  1.7355435392946753e-01  2.1249722140360822e-01  2.1864597134757630e-01  2.0173863103812140e-01  1.7300268411369074e-01  1.4145835478027233e-01  1.1267121041664414e-01  8.9144325475946737e-02  7.1354185407591461e-02  5.8755392402432015e-02  5.0480524950212595e-02  4.5723183552083241e-02  4.3897236617670775e-02  4.4669684837772297e-02  4.7933140942405965e-02  5.3747244733917676e-02  6.2253819013387918e-02  7.3553412672824586e-02  8.7532959197700724e-02  1.0363382466224180e-01  1.2059748905705904e-01  1.3624735840986391e-01  1.4744180149987438e-01  1.5039775703232733e-01  1.4138140035253668e-01  1.1815856137561237e-01  8.1222933498393796e-02  3.6639207902829013e-02  7.9510669269523618e-03  0.0000000000000000e+00  8.1976060245773863e-02  1.4854520042498917e-01  1.9275340368678537e-01  2.1419833048308917e-01  2.1688353953997982e-01  2.0669557708297673e-01  1.8944531663188055e-01  1.6977074863325886e-01  1.5080959500085436e-01  1.3435646844727567e-01  1.2122369780846819e-01  1.1161478966166424e-01  1.0541774270156677e-01  1.0239579811008269e-01  1.0228739071780764e-01  1.0483846881327732e-01  1.0978642268077160e-01  1.1680978361063515e-01  1.2545330355317486e