<?xml version="1.0"?>
<VTKFile type="UnstructuredGrid"  version="0.1"  >
<UnstructuredGrid>
<Piece  NumberOfPoints="961" NumberOfCells="1800">
<Points>
<DataArray  type="Float64"  NumberOfComponents="3"  format="ascii">-1 -1 0  -0.9333333333333333 -1 0  -0.8666666666666667 -1 0  -0.8 -1 0  -0.7333333333333334 -1 0  -0.6666666666666667 -1 0  -0.6 -1 0  -0.5333333333333333 -1 0  -0.4666666666666667 -1 0  -0.4 -1 0  -0.3333333333333334 -1 0  -0.2666666666666667 -1 0  -0.2 -1 0  -0.1333333333333333 -1 0  -0.06666666666666665 -1 0  0 -1 0  0.06666666666666665 -1 0  0.1333333333333333 -1 0  0.2 -1 0  0.2666666666666666 -1 0  0.3333333333333333 -1 0  0.3999999999999999 -1 0  0.4666666666666666 -1 0  0.5333333333333334 -1 0  0.6000000000000001 -1 0  0.6666666666666667 -1 0  0.7333333333333334 -1 0  0.8 -1 0  0.8666666666666667 -1 0  0.9333333333333333 -1 0  1 -1 0  -1 -0.9333333333333333 0  -0.9333333333333333 -0.9333333333333333 0  -0.8666666666666667 -0.9333333333333333 0  -0.8 -0.9333333333333333 0  -0.7333333333333334 -0.9333333333333333 0  -0.6666666666666667 -0.9333333333333333 0  -0.6 -0.9333333333333333 0  -0.5333333333333333 -0.9333333333333333 0  -0.4666666666666667 -0.9333333333333333 0  -0.4 -0.9333333333333333 0  -0.3333333333333334 -0.9333333333333333 0  -0.2666666666666667 -0.9333333333333333 0  -0.2 -0.9333333333333333 0  -0.1333333333333333 -0.9333333333333333 0  -0.06666666666666665 -0.9333333333333333 0  0 -0.9333333333333333 0  0.06666666666666665 -0.9333333333333333 0  0.1333333333333333 -0.9333333333333333 0  0.2 -0.9333333333333333 0  0.2666666666666666 -0.9333333333333333 0  0.3333333333333333 -0.9333333333333333 0  0.3999999999999999 -0.9333333333333333 0  0.4666666666666666 -0.9333333333333333 0  0.5333333333333334 -0.9333333333333333 0  0.6000000000000001 -0.9333333333333333 0  0.6666666666666667 -0.9333333333333333 0  0.7333333333333334 -0.9333333333333333 0  0.8 -0.9333333333333333 0  0.8666666666666667 -0.9333333333333333 0  0.9333333333333333 -0.9333333333333333 0  1 -0.9333333333333333 0  -1 -0.8666666666666667 0  -0.9333333333333333 -0.8666666666666667 0  -0.8666666666666667 -0.8666666666666667 0  -0.8 -0.8666666666666667 0  -0.7333333333333334 -0.8666666666666667 0  -0.6666666666666667 -0.8666666666666667 0  -0.6 -0.8666666666666667 0  -0.5333333333333333 -0.8666666666666667 0  -0.4666666666666667 -0.8666666666666667 0  -0.4 -0.8666666666666667 0  -0.3333333333333334 -0.8666666666666667 0  -0.2666666666666667 -0.8666666666666667 0  -0.2 -0.8666666666666667 0  -0.1333333333333333 -0.8666666666666667 0  -0.06666666666666665 -0.8666666666666667 0  0 -0.8666666666666667 0  0.06666666666666665 -0.8666666666666667 0  0.1333333333333333 -0.8666666666666667 0  0.2 -0.8666666666666667 0  0.2666666666666666 -0.8666666666666667 0  0.3333333333333333 -0.8666666666666667 0  0.3999999999999999 -0.8666666666666667 0  0.4666666666666666 -0.8666666666666667 0  0.5333333333333334 -0.8666666666666667 0  0.6000000000000001 -0.8666666666666667 0  0.6666666666666667 -0.8666666666666667 0  0.7333333333333334 -0.8666666666666667 0  0.8 -0.8666666666666667 0  0.8666666666666667 -0.8666666666666667 0  0.9333333333333333 -0.8666666666666667 0  1 -0.8666666666666667 0  -1 -0.8 0  -0.9333333333333333 -0.8 0  -0.8666666666666667 -0.8 0  -0.8 -0.8 0  -0.7333333333333334 -0.8 0  -0.6666666666666667 -0.8 0  -0.6 -0.8 0  -0.5333333333333333 -0.8 0  -0.4666666666666667 -0.8 0  -0.4 -0.8 0  -0.3333333333333334 -0.8 0  -0.2666666666666667 -0.8 0  -0.2 -0.8 0  -0.1333333333333333 -0.8 0  -0.06666666666666665 -0.8 0  0 -0.8 0  0.06666666666666665 -0.8 0  0.1333333333333333 -0.8 0  0.2 -0.8 0  0.2666666666666666 -0.8 0  0.3333333333333333 -0.8 0  0.3999999999999999 -0.8 0  0.4666666666666666 -0.8 0  0.5333333333333334 -0.8 0  0.6000000000000001 -0.8 0  0.6666666666666667 -0.8 0  0.7333333333333334 -0.8 0  0.8 -0.8 0  0.8666666666666667 -0.8 0  0.9333333333333333 -0.8 0  1 -0.8 0  -1 -0.7333333333333334 0  -0.9333333333333333 -0.7333333333333334 0  -0.8666666666666667 -0.7333333333333334 0  -0.8 -0.7333333333333334 0  -0.7333333333333334 -0.7333333333333334 0  -0.6666666666666667 -0.7333333333333334 0  -0.6 -0.7333333333333334 0  -0.5333333333333333 -0.7333333333333334 0  -0.4666666666666667 -0.7333333333333334 0  -0.4 -0.7333333333333334 0  -0.3333333333333334 -0.7333333333333334 0  -0.2666666666666667 -0.7333333333333334 0  -0.2 -0.7333333333333334 0  -0.1333333333333333 -0.7333333333333334 0  -0.06666666666666665 -0.7333333333333334 0  0 -0.7333333333333334 0  0.06666666666666665 -0.7333333333333334 0  0.1333333333333333 -0.7333333333333334 0  0.2 -0.7333333333333334 0  0.2666666666666666 -0.7333333333333334 0  0.3333333333333333 -0.7333333333333334 0  0.3999999999999999 -0.7333333333333334 0  0.4666666666666666 -0.7333333333333334 0  0.5333333333333334 -0.7333333333333334 0  0.6000000000000001 -0.7333333333333334 0  0.6666666666666667 -0.7333333333333334 0  0.7333333333333334 -0.7333333333333334 0  0.8 -0.7333333333333334 0  0.8666666666666667 -0.7333333333333334 0  0.9333333333333333 -0.7333333333333334 0  1 -0.7333333333333334 0  -1 -0.6666666666666667 0  -0.9333333333333333 -0.6666666666666667 0  -0.8666666666666667 -0.6666666666666667 0  -0.8 -0.6666666666666667 0  -0.7333333333333334 -0.6666666666666667 0  -0.6666666666666667 -0.6666666666666667 0  -0.6 -0.6666666666666667 0  -0.5333333333333333 -0.6666666666666667 0  -0.4666666666666667 -0.6666666666666667 0  -0.4 -0.6666666666666667 0  -0.3333333333333334 -0.6666666666666667 0  -0.2666666666666667 -0.6666666666666667 0  -0.2 -0.6666666666666667 0  -0.1333333333333333 -0.6666666666666667 0  -0.06666666666666665 -0.6666666666666667 0  0 -0.6666666666666667 0  0.06666666666666665 -0.6666666666666667 0  0.1333333333333333 -0.6666666666666667 0  0.2 -0.6666666666666667 0  0.2666666666666666 -0.6666666666666667 0  0.3333333333333333 -0.6666666666666667 0  0.3999999999999999 -0.6666666666666667 0  0.4666666666666666 -0.6666666666666667 0  0.5333333333333334 -0.6666666666666667 0  0.6000000000000001 -0.6666666666666667 0  0.6666666666666667 -0.6666666666666667 0  0.7333333333333334 -0.6666666666666667 0  0.8 -0.6666666666666667 0  0.8666666666666667 -0.6666666666666667 0  0.9333333333333333 -0.6666666666666667 0  1 -0.6666666666666667 0  -1 -0.6 0  -0.9333333333333333 -0.6 0  -0.8666666666666667 -0.6 0  -0.8 -0.6 0  -0.7333333333333334 -0.6 0  -0.6666666666666667 -0.6 0  -0.6 -0.6 0  -0.5333333333333333 -0.6 0  -0.4666666666666667 -0.6 0  -0.4 -0.6 0  -0.3333333333333334 -0.6 0  -0.2666666666666667 -0.6 0  -0.2 -0.6 0  -0.1333333333333333 -0.6 0  -0.06666666666666665 -0.6 0  0 -0.6 0  0.06666666666666665 -0.6 0  0.1333333333333333 -0.6 0  0.2 -0.6 0  0.2666666666666666 -0.6 0  0.3333333333333333 -0.6 0  0.3999999999999999 -0.6 0  0.4666666666666666 -0.6 0  0.5333333333333334 -0.6 0  0.6000000000000001 -0.6 0  0.6666666666666667 -0.6 0  0.7333333333333334 -0.6 0  0.8 -0.6 0  0.8666666666666667 -0.6 0  0.9333333333333333 -0.6 0  1 -0.6 0  -1 -0.5333333333333333 0  -0.9333333333333333 -0.5333333333333333 0  -0.8666666666666667 -0.5333333333333333 0  -0.8 -0.5333333333333333 0  -0.7333333333333334 -0.5333333333333333 0  -0.6666666666666667 -0.5333333333333333 0  -0.6 -0.5333333333333333 0  -0.5333333333333333 -0.5333333333333333 0  -0.4666666666666667 -0.5333333333333333 0  -0.4 -0.5333333333333333 0  -0.3333333333333334 -0.5333333333333333 0  -0.2666666666666667 -0.5333333333333333 0  -0.2 -0.5333333333333333 0  -0.1333333333333333 -0.5333333333333333 0  -0.06666666666666665 -0.5333333333333333 0  0 -0.5333333333333333 0  0.06666666666666665 -0.5333333333333333 0  0.1333333333333333 -0.5333333333333333 0  0.2 -0.5333333333333333 0  0.2666666666666666 -0.5333333333333333 0  0.3333333333333333 -0.5333333333333333 0  0.3999999999999999 -0.5333333333333333 0  0.4666666666666666 -0.5333333333333333 0  0.5333333333333334 -0.5333333333333333 0  0.6000000000000001 -0.5333333333333333 0  0.6666666666666667 -0.5333333333333333 0  0.7333333333333334 -0.5333333333333333 0  0.8 -0.5333333333333333 0  0.8666666666666667 -0.5333333333333333 0  0.9333333333333333 -0.5333333333333333 0  1 -0.5333333333333333 0  -1 -0.4666666666666667 0  -0.9333333333333333 -0.4666666666666667 0  -0.8666666666666667 -0.4666666666666667 0  -0.8 -0.4666666666666667 0  -0.7333333333333334 -0.4666666666666667 0  -0.6666666666666667 -0.4666666666666667 0  -0.6 -0.4666666666666667 0  -0.5333333333333333 -0.4666666666666667 0  -0.4666666666666667 -0.4666666666666667 0  -0.4 -0.4666666666666667 0  -0.3333333333333334 -0.4666666666666667 0  -0.2666666666666667 -0.4666666666666667 0  -0.2 -0.4666666666666667 0  -0.1333333333333333 -0.4666666666666667 0  -0.06666666666666665 -0.4666666666666667 0  0 -0.4666666666666667 0  0.06666666666666665 -0.4666666666666667 0  0.1333333333333333 -0.4666666666666667 0  0.2 -0.4666666666666667 0  0.2666666666666666 -0.4666666666666667 0  0.3333333333333333 -0.4666666666666667 0  0.3999999999999999 -0.4666666666666667 0  0.4666666666666666 -0.4666666666666667 0  0.5333333333333334 -0.4666666666666667 0  0.6000000000000001 -0.4666666666666667 0  0.6666666666666667 -0.4666666666666667 0  0.7333333333333334 -0.4666666666666667 0  0.8 -0.4666666666666667 0  0.8666666666666667 -0.4666666666666667 0  0.9333333333333333 -0.4666666666666667 0  1 -0.4666666666666667 0  -1 -0.4 0  -0.9333333333333333 -0.4 0  -0.8666666666666667 -0.4 0  -0.8 -0.4 0  -0.7333333333333334 -0.4 0  -0.6666666666666667 -0.4 0  -0.6 -0.4 0  -0.5333333333333333 -0.4 0  -0.4666666666666667 -0.4 0  -0.4 -0.4 0  -0.3333333333333334 -0.4 0  -0.2666666666666667 -0.4 0  -0.2 -0.4 0  -0.1333333333333333 -0.4 0  -0.06666666666666665 -0.4 0  0 -0.4 0  0.06666666666666665 -0.4 0  0.1333333333333333 -0.4 0  0.2 -0.4 0  0.2666666666666666 -0.4 0  0.3333333333333333 -0.4 0  0.3999999999999999 -0.4 0  0.4666666666666666 -0.4 0  0.5333333333333334 -0.4 0  0.6000000000000001 -0.4 0  0.6666666666666667 -0.4 0  0.7333333333333334 -0.4 0 
[...]
<PointData  Scalars="f_24"> 
<DataArray  type="Float64"  Name="f_24"  format="ascii">0.0000000000000000e+00  0.0000000000000000e+00  0.0000000000000000e+00  0.0000000000000000e+00  0.0000000000000000e+00  0.0000000000000000e+00  0.0000000000000000e+00  0.0000000000000000e+00  0.0000000000000000e+00  0.0000000000000000e+00  0.0000000000000000e+00  0.0000000000000000e+00  0.0000000000000000e+00  0.0000000000000000e+00  0.0000000000000000e+00  0.0000000000000000e+00  0.0000000000000000e+00  0.0000000000000000e+00  0.0000000000000000e+00  0.0000000000000000e+00  0.0000000000000000e+00  0.0000000000000000e+00  0.0000000000000000e+00  0.0000000000000000e+00  0.0000000000000000e+00  0.0000000000000000e+00  0.0000000000000000e+00  0.0000000000000000e+00  0.0000000000000000e+00  0.0000000000000000e+00  1.2523272611869892e+01  0.0000000000000000e+00  5.5815300596930233e-02  1.1472705921031426e-01  1.7029362461288111e-01  2.2239896381555810e-01  2.7187879482579980e-01  3.1940616340331424e-01  3.6564533458987453e-01  4.1128786075626894e-01  4.5707787025111446e-01  5.0383802060742822e-01  5.5249467206356040e-01  6.0410859712451470e-01  6.5991667919713726e-01  7.2138937340999265e-01  7.9031066091314195e-01  8.6888967883823220e-01  9.5991712583125444e-01  1.0669860774603077e+00  1.1948068917192756e+00  1.3496617512632152e+00  1.5400701639949388e+00  1.7777801673236726e+00  2.0792767852150771e+00  2.4681444426258197e+00  2.9789140443175888e+00  3.6636599716039329e+00  4.6042619938971736e+00  5.9369368262546418e+00  7.9120855934295555e+00  1.0935151575550554e+01  0.0000000000000000e+00  1.0690604143278971e-01  2.1381710897182374e-01  3.0297130658827143e-01  3.7181375937698286e-01  4.2170549871794666e-01  4.5463073232362305e-01  4.7319073643567683e-01  4.8011880973040033e-01  4.7803158765653192e-01  4.6927370079030556e-01  4.5584668326703115e-01  4.3940651191955332e-01  4.2130344214196735e-01  4.0264830833407733e-01  3.8439761009646362e-01  3.6745683140206226e-01  3.5281118153395630e-01  3.4170492666959668e-01  3.3590839965482605e-01  3.3814210511870707e-01  3.5278033059315128e-01  3.8705182143698530e-01  4.5313071187713183e-01  5.7184622589380429e-01  7.7942230447692018e-01  1.1402065853308649e+00  1.7720378022185577e+00  2.9035984153882541e+00  5.0193598139643978e+00  9.5030921611376549e+00  0.0000000000000000e+00  1.5105180770661891e-01  2.8946877880732030e-01  3.8283998449019108e-01  4.2819331721129250e-01  4.3354274199264509e-01  4.0923261063649252e-01  3.6602023029235964e-01  3.1302511286930867e-01  2.5715431077515039e-01  2.0308538428501688e-01  1.5362710536984545e-01  1.1019408834693151e-01  7.3251930364404250e-02  4.2679327593495658e-02  1.8034497912925378e-02  -1.2610241103348158e-03  -1.5797614513937023e-02  -2.6084975213503045e-02  -3.2458264802899421e-02  -3.4931502016605574e-02  -3.2901412550339924e-02  -2.4499219829623334e-02  -5.1560185983147997e-03  3.5553404760953054e-02  1.2080217459761898e-01  3.0153082215846522e-01  6.9024838887340889e-01  1.5396668981383337e+00  3.4690238338259709e+00  8.2165191606478363e+00  0.0000000000000000e+00  1.8705176123815137e-01  3.4003242775100706e-01  4.1319495150527186e-01  4.1138805708781939e-01  3.5977539404458259e-01  2.8400003657713013e-01  2.0460007069233457e-01  1.3413092526354709e-01  7.8334120779824989e-02  3.8158876922401205e-02  1.1893007446540154e-02  -3.2740170062570905e-03  -1.0291894906502012e-02  -1.1765902898957953e-02  -9.7852706553208362e-03  -5.9211422934173277e-03  -1.3019305184644339e-03  3.2865400336569576e-03  7.3027669949624991e-03  1.0366549907306861e-02  1.2211100374712128e-02  1.2739622121683111e-02  1.2426654206761509e-02  1.3796565772517819e-02  2.6024149064622294e-02  7.8067402753209822e-02  2.5372446368498763e-01  7.8845542301260163e-01  2.3384238571798366e+00  7.0652284260269829e+00  0.0000000000000000e+00  2.1455190767893748e-01  3.6802118083497332e-01  4.0696233808060456e-01  3.5444024002847097e-01  2.5990409142241339e-01  1.6290859038512462e-01  8.5838320253956574e-02  3.4867279284794044e-02  6.8250544685773311e-03  -5.0873488186074633e-03  -7.5540997826971535e-03  -5.6296270078138137e-03  -2.5036265120629082e-03  1.4136385047190558e-04  1.6361357159863431e-03  1.9023205161396559e-03  1.1537757122777660e-03  -2.8794883318114555e-04  -2.0965757988280855e-03  -3.9971249177282479e-03  -5.8082868293674369e-03  -7.5049516473058306e-03  -9.3074798240891290e-03  -1.1569074731262903e-02  -1.3200652830122884e-02  -3.8421076485236358e-03  6.6243249716705352e-02  3.8275389982524927e-01  1.5956669806040620e+00  6.0393868691502188e+00  0.0000000000000000e+00  2.3386505185027520e-01  3.7803449868412775e-01  3.7887016641550703e-01  2.8523894987685339e-01  1.7051035443858623e-01  7.9164758914401306e-02  2.4652368513501666e-02  3.9734179904349663e-04  -5.8587130820104191e-03  -4.4959760488609470e-03  -1.5676070036800222e-03  4.2408715620750951e-04  1.0633050562992763e-03  7.8948825518087651e-04  1.9371265252530884e-04  -2.7809282160020960e-04  -3.9126057491210614e-04  -8.6786713536620582e-05  5.8041194291250445e-04  1.4980048293681638e-03  2.5365210433020598e-03  3.5585924988186016e-03  4.3422081468592723e-03  4.2768611018579872e-03  1.9890611597879514e-03  -2.3485425625555398e-03  1.1622764786469949e-02  1.7447184692464573e-01  1.0631321663976048e+00  5.1295324618219089e+00  0.0000000000000000e+00  2.4575283175482290e-01  3.7511885542369905e-01  3.4105961706089666e-01  2.2059230228579993e-01  1.0458421317394311e-01  3.2045253046813701e-02  1.4531316695734443e-03  -5.1062833613308425e-03  -3.0499918753837149e-03  -4.0025955540294627e-04  6.8337868529586324e-04  5.7005608352089451e-04  1.1160633459453477e-04  -1.8547120106102779e-04  -2.1032857888299151e-04  -7.4799129992414199e-05  5.3855803326935414e-05  4.6596719714477061e-05  -1.5771771320896908e-04  -5.5670253565905841e-04  -1.1002010830915897e-03  -1.6970349470858562e-03  -2.2158593550279351e-03  -2.5834446114598049e-03  -3.4821870071764507e-03  -7.5165558619130230e-03  -1.1691665021915090e-02  5.9260233469479319e-02  6.9470141490993986e-01  4.3265742357756567e+00  0.0000000000000000e+00  2.5121519167869438e-01  3.6378099197192515e-01  3.0175336497561817e-01  1.6771600849227386e-01  6.1422562355311176e-02  9.5298688423690846e-03  -4.1251518995487476e-03  -3.0757541675810597e-03  -3.3067816647980807e-04  5.7477750722661092e-04  3.3078146329188802e-04  -3.7577177039885684e-05  -1.3710537588610661e-04  -5.4657790868338058e-05  4.0044171698348361e-05  6.2130496807089055e-05  2.7498126264453777e-05  1.1486738042921137e-06  4.8094496751577119e-05  2.0651135133440153e-04  4.7966459390454391e-04  8.3803354264354269e-04  1.2528654736871331e-03  1.7594581252294646e-03  2.3345115992846072e-03  1.0596660090108644e-03  -7.0340084990949498e-03  1.1919793706825435e-02  4.4099904939219153e-01  3.6217922826743143e+00  0.0000000000000000e+00  2.5132218254758509e-01  3.4756631482870498e-01  2.6564118908778045e-01  1.2789378533885648e-01  3.5394447662026228e-02  3.9687305268669822e-04  -3.8013912260784618e-03  -9.7050816410605332e-04  4.5895981247135581e-04  2.9956247573603299e-04  -3.4324278116693241e-05  -9.7287323739492346e-05  -1.4240915289990793e-05  3.1939683888783983e-05  1.7361273449429616e-05  -1.3134998100149439e-05  -2.2482888771270805e-05  -1.4646204736523684e-05  -2.0845324743731331e-05  -7.6701254559253393e-05  -2.0564356706921186e-04  -4.1121907288511287e-04  -6.9555295368578854e-04  -9.9608179921614856e-04  -1.0830707681373254e-03  -1.1847237454051178e-03  -7.1744528892148315e-03  -1.2790431073697657e-02  2.6194359344318296e-01  3.0068377541099607e+00  0.0000000000000000e+00  2.4709989862349821e-01  3.2900472608354764e-01  2.3486132394936704e-01  9.9624061530007982e-02  2.0653860253477329e-02  -2.5416471438644722e-03  -2.4095740104853893e-03  1.6504764144956719e-05  3.9605227202817509e-04  2.5410214063257675e-05  -8.0546936854846709e-05  -1.7302070755296524e-05  2.4328227617105236e-05  7.6175144658274307e-06  -8.0643524282825033e-06  -4.7744704687719882e-06  6.3496118753086344e-06  1.0594363003859833e-05  1.2119658099031340e-05  2.9426349207916794e-05  8.5334837762977446e-05  1.9369361732292779e-04  3.6434116923685821e-04  5.3222598393531950e-04  8.2692191656323112e-04  1.5018116540188064e-03  -7.1152515587789085e-04  -1.5826512447902216e-02  1.4719058282393613e-01  2.4737328616039305e+00  0.0000000000000000e+00  2.3946584311489930e-01  3.0974190010245251e-01  2.0996362475649230e-01  8.0569344607772125e-02  1.2790413723592766e-02  -3.0361538543198056e-03  -1.3477617447395149e-03  2.9661619406674036e-04  2.0386242027058379e-04  -6.2368187823809508e-05  -3.4728814583296144e-05  1.3721794414287125e-05  1.0318174150801842e-05  -6.0580306147486634e-06  -2.7039330427734112e-06  2.2153444341162585e-06  9.0309558398191633e-07  -3.8865167686297485e-06  -6.7430150663067385e-06  -1.2241921821649851e-05  -3.4438138150151473e-05  -8.4872748677759216e-05  -1.8185903461925821e-04  -2.9898863629263813e-04  -5.6780793341412814e-04  -2.6724216047387350e-04  -8.7632370972743831e-04  -1.5768689470871376e-02  6.6387959108848191e-02  2.0148708766067851e+00  0.0000000000000000e+00  2.2920182432229930e-01  2.9073311296332760e-01  1.9063057345895387e-01  6.8507509864599719e-02  8.9667144976220692e-03  -2.7563251462292384e-03  -7.6754597563165588e-04  3.0415095655305464e-04  8.4399447837849544e-05  -6.1676968344803103e-05  -4.1008385409227130e-06  1.1963906726983332e-05  -8.9303615280542007e-08  -4.0947447517792036e-06  1.5067447838018448e-06  8.9021653559599707e-07  -6.1359295439689582e-07  2.6163995907177854e-07  2.7723619218531936e-06  5.2579607771633145e-06  1.4023796638978081e-05  3.3650237815891171e-05  9.1423007793537133e-05  1.5666515360292073e-04  2.8732300299458605e-04  3.7530474126035217e-04  1.7231235413787854e-03  -1.0519021106317923e-02  2.0717329320942116e-02  1.6230161304983379e+00  0.0000000000000000e+00  2.1695158954196697e-01  2.7243320771693147e-01  1.7613743863627929e-01  6.1670509484199380e-02  7.5549962949538647e-03  -2.3246619221086481e-03  -5.2615021340165840e-04  2.4791777615020986e-04  3.7032099094138454e-05  -4.3913210291713281e-05  4.3805098112299558e-06  6.2406870655538395e-06  -2.0261486012166325e-06  -1.2860033998292876e-06  1.2620533029538668e-06  -2.5518525405235689e-07  -3.0091062207595502e-07  1.0104782196832762e-07  -6.4813688405429445e-07  -2.0271609499263626e-06  -6.2497371265798354e-06  -1.0837460688664125e-05  -4.6114028300670814e-05  -5.6891826816634264e-05  -1.9912204248238592e-04  -2.5143960801365592e-04  4.9369025903137672e-04  -6.5160867585278715e-03  -1.0156758380033380e-02  1.2913040145876360e+00  0.0000000000000000e+00  2.0323279216500303e-01  2.5495521771162344e-01  1.6560893384104164e-01  5.8775402321713605e-02  7.7336122841108433e-03  -1.8951623972770588e-03  -4.8609345924292168e-04  1.9063749597847906e-04  2.9634959347908518e-05  -3.0445666587368244e-05  2.9265377351806705e-06  3.7403312394089750e-06  -1.2984189204885806e-06  -4.4141380161047592e-07  4.6356188866465651e-07  -1.8158861786784504e-07  2.1291922223812212e-08  8.1984681012436664e-08  1.4946978168969187e-07  2.7116772480494294e-07  2.9945362732172365e-06  1.8416615949605810e-06  2.6178788262082888e-05  1.5607473896865039e-05  1.5073361742121974e-04  -6.2888143144148036e-05  1.1030809186584243e-03  -2.4781829656453504e-03  -2.3140593054043365e-02  1.0132409801129694e+00  0.0000000000000000e+00  1.8845578489127537e-01  2.3819205567610949e-01  1.5814074015194110e-01  5.8928402903335911e-02  9.1840998021742934e-03  -1.4147129610591746e-03  -5.6321109943216832e-04  1.3174148575622013e-04  4.1495573657273595e-05  -2.0755424844879756e-05  -1.6030427469042828e-06  2.8643413815115278e-06  -1.5766397406635557e-07  -2.6632483329687613e-07  7.6411507709052466e-08  -3.9777540290070191e-08  1.1938082684329664e-08  3.2211593314688030e-08  -1.2715316214714975e-07  1.3123295499177358e-07  -2.3779669618941397e-06  2.4346069049694707e-06  -1.4168574582919605e-05  9.3246472248439377e-06  -6.6332544628931771e-05  -5.4484859049716726e-05  4.5262412494761717e-07  1.2568895684992006e-04  -3.0391919087214794e-02  7.8270453824186825e-01  0.0000000000000000e+00  1.7294455672048942e-01  2.2190608435557124e-01  1.5284171091434429e-01  6.1489844734015482e-02  1.1891781367905020e-02  -7.0940576377387973e-04  -6.9849934159028025e-04  4.6713566941059981e-05  5.9415629917372698e-05  -8.2971322636706430e-06  -6.1503424796776846e-06  1.0324005605637766e-06  6.7944691788450447e-07  6.8925203316812900e-08  1.0182963476031462e-08  -1.4111650910089597e-08  -3.0882116504335599e-10  7.7451319797684042e-08  3.6939454723493652e-08  -5.4673517493147144e-07  8.3597600022823705e-07  -2.3107780113226208e-06  1.3393946758011677e-05  -4.3968878468905191e-06  6.0945149043949451e-05  -5.1941228799875943e-06  8.5377950433616377e-05  1.7388877874460044e-03  -2.9646970504500349e-02  5.9394326007110343e-01  0.0000000000000000e+00  1.5695747137626137e-01  2.0579422746862897e-01  1.4883655343702520e-01  6.5934654569732368e-02  1.6009108242486678e-02  5.1117969310665210e-04  -8.0424246365063312e-04  -9.4454554059954547e-05  6.3325655119047722e-05  1.2116624228654382e-05  -5.9414184676670602e-06  -2.2656392570376264e-06  -8.3415355231252475e-08  4.3785160111953618e-08  -5.9035438290337059e-08  -3.5441720398617329e-08  4.9788765403160556e-08  2.4036473295593081e-07  -4.0158082714188369e-07  2.0082010121444925e-07  -3.2056965442896648e-06  7.0572018661493884e-06  -8.2029435711440452e-06  3.8290278295365398e-05  -4.9510719930728109e-05  1.2967234893360838e-04  -4.6520760067902608e-04  2.5493416981358062e-03  -2.7384904983218935e-02  4.4157677662668643e-01  0.0000000000000000e+00  1.4070549662159576e-01  1.8953748752544147e-01  1.4525556432005696e-01  7.1720536980855606e-02  2.1734494655373228e-02  2.6714140525744535e-03  -6.8766644221559311e-04  -2.9644440108102618e-04  1.5311684390087499e-05  3.2096809869454735e-05  5.3838568692292194e-06  -2.0220781845447050e-06  -1.5205805981581443e-06  -6.9218455233709157e-07  -2.5648862168969887e-07  1.1003623400837952e-07  3.2398927572916884e-07  1.9326028933576604e-07  -6.7935709282192393e-07  -1.6635258306379589e-06  -6.8389827894294262e-08  2.2677458485297511e-06  1.4738004158002039e-05  1.9906842960235115e-05  1.5351952895323048e-05  1.0669396330590407e-04  -3.7701352381575687e-04  2.6082450389206496e-03  -2.2424244936378290e-02  3.2059577886386931e-01  0.0000000000000000e+00  1.2437037628587606e-01  1.7284022664189769e-01  1.4123107764507173e-01  7.8170686143081272e-02  2.9168011265328798e-02  6.3131361662194813e-03  4.3076286334934088e-05  -4.5964326505874695e-04  -1.2293394465413569e-04  1.2461677978546112e-05  1.9350428461115399e-05  7.7298795400148233e-06  2.3853057499562882e-06  1.1179355259201358e-06  1.0553785891522639e-06  1.0609251575728335e-06  5.1548418789448532e-07  -7.1656570399193471e-07  -2.7555628710454001e-06  -1.6362525504963117e-06  -1.0286002562443854e-06  1.6685053292848138e-05  1.1856144757861471e-05  6.1427982338561169e-05  -2.1334826064046372e-05  1.7995026559928891e-04  -4.9879239764642302e-04  2.4069980897854578e-03  -1.7767198459386634e-02  2.2636201766714464e-01  0.0000000000000000e+00  1.0811634777843919e-01  1.5546646041570703e-01  1.3591243727180452e-01  8.4387011463481265e-02  3.8125286889429878e-02  1.1980972371898919e-02  2.0432568422684935e-03  -2.3501566872079064e-04  -2.9165906968341100e-04  -9.7861162496324831e-05  -1.1201179797882261e-05  7.3783086164550355e-06  7.1091979630597183e-06  4.5731126869076017e-06  2.3755850405223268e-06  9.8715491062927972e-08  -2.5647318768927822e-06  -5.0747786401057772e-06  -5.1973818859517354e-06  -9.5774569866424421e-07  1.2133705787718837e-05  2.8372012571380239e-05  4.9217165807538218e-05  6.3386086934199307e-05  3.5916328318501726e-05  1.3429326913164786e-04  -3.5163331608342626e-04  1.8924202572423400e-03  -1.2908422150197652e-02  1.5460830385024565e-01  0.0000000000000000e+00  9.2109380032108723e-02  1.3727338148314838e-01  1.2851330563612715e-01  8.9218695388735308e-02  4.7928769365190950e-02  1.9951398282506878e-02  6.1478507476317376e-03  1.1220806071079409e-03  -1.1554672238225740e-04  -2.1281671586598997e-04  -1.2042065309207733e-04  -5.4730987144371961e-05  -2.5826506631634709e-05  -1.5784685632200313e-05  -1.3473700380420763e-05  -1.3772738668524592e-05  -1.3650669969242534e-05  -1.0088267026920307e-05  -3.8790937097891442e-07  1.8834776073870017e-05  4.2773926098777762e-05  7.5290441450464595e-05  8.6323564581670755e-05  1.1203659373604442e-04  5.0149125390123886e-05  1.5000969107123528e-04  -2.8846358841432706e-04  1.4115163403691827e-03  -8.9649216586880024e-03  1.0143850815614619e-01  0.0000000000000000e+00  7.6517996104718239e-02  1.1824694600425448e-01  1.1838968663851901e-01  9.1323592720138277e-02  5.7249419579246945e-02  2.9814594047354540e-02  1.2985326863373042e-02  4.6760368409132155e-03  1.3105817311917017e-03  2.0300597878323073e-04  -7.1179027330195104e-05  -1.0059885976220703e-04  -7.9514056073326264e-05  -5.6937310891448253e-05  -3.9244316264677979e-05  -2.3174801778068500e-05  -4.3460268337621668e-06  2.0570826978857783e-05  5.3442772547691279e-05  9.1083518871488414e-05  1.3041750415554565e-04  1.5654551339621718e-04  1.6841594039120961e-04  1.5296778870001635e-04  1.0723406141273114e-04  1.1921090410139349e-04  -1.5538755417001930e-04  9.1581828313912650e-04  -5.7032181448544803e-03  6.3327561257060627e-02  0.0000000000000000e+00  6.1545214029624859e-02  9.8538974415992256e-02  1.0516147332074438e-01  8.9355783608686817e-02  6.4127482868238314e-02  4.0063603269233243e-02  2.2255090517025844e-02  1.1201800287839625e-02  5.2126295793989193e-03  2.2981437291068690e-03  9.9341614149527015e-04  4.4512896080610258e-04  2.2723491234594327e-04  1.4907281249690565e-04  1.3158190076514330e-04  1.4344424373248017e-04  1.7178382472462535e-04  2.0976875576540532e-04  2.5041037446305535e-04  2.8662957524925968e-04  3.0665167246483004e-04  3.0633713541115208e-04  2.7348949966188519e-04  2.2577961750288344e-04  1.4452019495091783e-04  1.2112966835330652e-04  -7.6340759377951516e-05  5.5076584715016506e-04  -3.3591482429768268e-03  3.7121453754443930e-02  0.0000000000000000e+00  4.7405750585208344e-02  7.8496682227170739e-02  8.8842594052781082e-02  8.2286203924016393e-02  6.6310115631686609e-02  4.8024692349241588e-02  3.2000210038286750e-02  2.0039322721214236e-02  1.2058480231955035e-02  7.1460311607657243e-03  4.2859606675555032e-03  2.6771038484268580e-03  1.7875828050671770e-03  1.2988812174744562e-03  1.0310602307290087e-03  8.8460620752097276e-04  8.0331784248128277e-04  7.5317242787873101e-04  7.1212943771664552e-04  6.6358642374148328e-04  5.9928050325843037e-04  5.1180761331759070e-04  4.0962363286034520e-04  2.9528646863325050e-04  1.8939726726978449e-04  1.1293365170106080e-04  -6.0197620616739772e-06  2.8012344197769984e-04  -1.7497661730389751e-03  2.0037236178991811e-02  0.0000000000000000e+00  3.4397436851442829e-02  5.8712155351648150e-02  7.0006420912055889e-02  6.9837229232471765e-02  6.1977317098865677e-02  5.0508503434284591e-02  3.8625337167769662e-02  2.8218441114050110e-02  2.0025254449926994e-02  1.4028857673837462e-02  9.8526580678504425e-03  7.0326832716571547e-03  5.1563799446681944e-03  3.9080407532356290e-03  3.0653098704562921e-03  2.4788790751239147e-03  2.0506337325519020e-03  1.7171318885999404e-03  1.4374178489985161e-03  1.1877679565188962e-03  9.5417773044014300e-04  7.3572669406975677e-04  5.3291317787667149e-04  3.5765843185289341e-04  2.1341218083563665e-04  1.1445568289818821e-04  2.7325661045681105e-05  1.2301207945755280e-04  -7.8109663993047710e-04  9.6630189906403395e-03  0.0000000000000000e+00  2.2819245257886544e-02  4.0006420043143427e-02  4.9860058297302751e-02  5.2884301079008267e-02  5.0700912979262741e-02  4.5270096580607405e-02  3.8360626168333210e-02  3.1282776308714344e-02  2.4835462429723409e-02  1.9386850319681216e-02  1.5007884727570751e-02  1.1601836940144808e-02  9.0015756132912593e-03  7.029914