<?xml version="1.0"?>
<VTKFile type="UnstructuredGrid"  version="0.1"  >
<UnstructuredGrid>
<Piece  NumberOfPoints="961" NumberOfCells="1800">
<Points>
<DataArray  type="Float64"  NumberOfComponents="3"  format="ascii">-1 -1 0  -0.9333333333333333 -1 0  -0.8666666666666667 -1 0  -0.8 -1 0  -0.7333333333333334 -1 0  -0.6666666666666667 -1 0  -0.6 -1 0  -0.5333333333333333 -1 0  -0.4666666666666667 -1 0  -0.4 -1 0  -0.3333333333333334 -1 0  -0.2666666666666667 -1 0  -0.2 -1 0  -0.1333333333333333 -1 0  -0.06666666666666665 -1 0  0 -1 0  0.06666666666666665 -1 0  0.1333333333333333 -1 0  0.2 -1 0  0.2666666666666666 -1 0  0.3333333333333333 -1 0  0.3999999999999999 -1 0  0.4666666666666666 -1 0  0.5333333333333334 -1 0  0.6000000000000001 -1 0  0.6666666666666667 -1 0  0.7333333333333334 -1 0  0.8 -1 0  0.8666666666666667 -1 0  0.9333333333333333 -1 0  1 -1 0  -1 -0.9333333333333333 0  -0.9333333333333333 -0.9333333333333333 0  -0.8666666666666667 -0.9333333333333333 0  -0.8 -0.9333333333333333 0  -0.7333333333333334 -0.9333333333333333 0  -0.6666666666666667 -0.9333333333333333 0  -0.6 -0.9333333333333333 0  -0.5333333333333333 -0.9333333333333333 0  -0.4666666666666667 -0.9333333333333333 0  -0.4 -0.9333333333333333 0  -0.3333333333333334 -0.9333333333333333 0  -0.2666666666666667 -0.9333333333333333 0  -0.2 -0.9333333333333333 0  -0.1333333333333333 -0.9333333333333333 0  -0.06666666666666665 -0.9333333333333333 0  0 -0.9333333333333333 0  0.06666666666666665 -0.9333333333333333 0  0.1333333333333333 -0.9333333333333333 0  0.2 -0.9333333333333333 0  0.2666666666666666 -0.9333333333333333 0  0.3333333333333333 -0.9333333333333333 0  0.3999999999999999 -0.9333333333333333 0  0.4666666666666666 -0.9333333333333333 0  0.5333333333333334 -0.9333333333333333 0  0.6000000000000001 -0.9333333333333333 0  0.6666666666666667 -0.9333333333333333 0  0.7333333333333334 -0.9333333333333333 0  0.8 -0.9333333333333333 0  0.8666666666666667 -0.9333333333333333 0  0.9333333333333333 -0.9333333333333333 0  1 -0.9333333333333333 0  -1 -0.8666666666666667 0  -0.9333333333333333 -0.8666666666666667 0  -0.8666666666666667 -0.8666666666666667 0  -0.8 -0.8666666666666667 0  -0.7333333333333334 -0.8666666666666667 0  -0.6666666666666667 -0.8666666666666667 0  -0.6 -0.8666666666666667 0  -0.5333333333333333 -0.8666666666666667 0  -0.4666666666666667 -0.8666666666666667 0  -0.4 -0.8666666666666667 0  -0.3333333333333334 -0.8666666666666667 0  -0.2666666666666667 -0.8666666666666667 0  -0.2 -0.8666666666666667 0  -0.1333333333333333 -0.8666666666666667 0  -0.06666666666666665 -0.8666666666666667 0  0 -0.8666666666666667 0  0.06666666666666665 -0.8666666666666667 0  0.1333333333333333 -0.8666666666666667 0  0.2 -0.8666666666666667 0  0.2666666666666666 -0.8666666666666667 0  0.3333333333333333 -0.8666666666666667 0  0.3999999999999999 -0.8666666666666667 0  0.4666666666666666 -0.8666666666666667 0  0.5333333333333334 -0.8666666666666667 0  0.6000000000000001 -0.8666666666666667 0  0.6666666666666667 -0.8666666666666667 0  0.7333333333333334 -0.8666666666666667 0  0.8 -0.8666666666666667 0  0.8666666666666667 -0.8666666666666667 0  0.9333333333333333 -0.8666666666666667 0  1 -0.8666666666666667 0  -1 -0.8 0  -0.9333333333333333 -0.8 0  -0.8666666666666667 -0.8 0  -0.8 -0.8 0  -0.7333333333333334 -0.8 0  -0.6666666666666667 -0.8 0  -0.6 -0.8 0  -0.5333333333333333 -0.8 0  -0.4666666666666667 -0.8 0  -0.4 -0.8 0  -0.3333333333333334 -0.8 0  -0.2666666666666667 -0.8 0  -0.2 -0.8 0  -0.1333333333333333 -0.8 0  -0.06666666666666665 -0.8 0  0 -0.8 0  0.06666666666666665 -0.8 0  0.1333333333333333 -0.8 0  0.2 -0.8 0  0.2666666666666666 -0.8 0  0.3333333333333333 -0.8 0  0.3999999999999999 -0.8 0  0.4666666666666666 -0.8 0  0.5333333333333334 -0.8 0  0.6000000000000001 -0.8 0  0.6666666666666667 -0.8 0  0.7333333333333334 -0.8 0  0.8 -0.8 0  0.8666666666666667 -0.8 0  0.9333333333333333 -0.8 0  1 -0.8 0  -1 -0.7333333333333334 0  -0.9333333333333333 -0.7333333333333334 0  -0.8666666666666667 -0.7333333333333334 0  -0.8 -0.7333333333333334 0  -0.7333333333333334 -0.7333333333333334 0  -0.6666666666666667 -0.7333333333333334 0  -0.6 -0.7333333333333334 0  -0.5333333333333333 -0.7333333333333334 0  -0.4666666666666667 -0.7333333333333334 0  -0.4 -0.7333333333333334 0  -0.3333333333333334 -0.7333333333333334 0  -0.2666666666666667 -0.7333333333333334 0  -0.2 -0.7333333333333334 0  -0.1333333333333333 -0.7333333333333334 0  -0.06666666666666665 -0.7333333333333334 0  0 -0.7333333333333334 0  0.06666666666666665 -0.7333333333333334 0  0.1333333333333333 -0.7333333333333334 0  0.2 -0.7333333333333334 0  0.2666666666666666 -0.7333333333333334 0  0.3333333333333333 -0.7333333333333334 0  0.3999999999999999 -0.7333333333333334 0  0.4666666666666666 -0.7333333333333334 0  0.5333333333333334 -0.7333333333333334 0  0.6000000000000001 -0.7333333333333334 0  0.6666666666666667 -0.7333333333333334 0  0.7333333333333334 -0.7333333333333334 0  0.8 -0.7333333333333334 0  0.8666666666666667 -0.7333333333333334 0  0.9333333333333333 -0.7333333333333334 0  1 -0.7333333333333334 0  -1 -0.6666666666666667 0  -0.9333333333333333 -0.6666666666666667 0  -0.8666666666666667 -0.6666666666666667 0  -0.8 -0.6666666666666667 0  -0.7333333333333334 -0.6666666666666667 0  -0.6666666666666667 -0.6666666666666667 0  -0.6 -0.6666666666666667 0  -0.5333333333333333 -0.6666666666666667 0  -0.4666666666666667 -0.6666666666666667 0  -0.4 -0.6666666666666667 0  -0.3333333333333334 -0.6666666666666667 0  -0.2666666666666667 -0.6666666666666667 0  -0.2 -0.6666666666666667 0  -0.1333333333333333 -0.6666666666666667 0  -0.06666666666666665 -0.6666666666666667 0  0 -0.6666666666666667 0  0.06666666666666665 -0.6666666666666667 0  0.1333333333333333 -0.6666666666666667 0  0.2 -0.6666666666666667 0  0.2666666666666666 -0.6666666666666667 0  0.3333333333333333 -0.6666666666666667 0  0.3999999999999999 -0.6666666666666667 0  0.4666666666666666 -0.6666666666666667 0  0.5333333333333334 -0.6666666666666667 0  0.6000000000000001 -0.6666666666666667 0  0.6666666666666667 -0.6666666666666667 0  0.7333333333333334 -0.6666666666666667 0  0.8 -0.6666666666666667 0  0.8666666666666667 -0.6666666666666667 0  0.9333333333333333 -0.6666666666666667 0  1 -0.6666666666666667 0  -1 -0.6 0  -0.9333333333333333 -0.6 0  -0.8666666666666667 -0.6 0  -0.8 -0.6 0  -0.7333333333333334 -0.6 0  -0.6666666666666667 -0.6 0  -0.6 -0.6 0  -0.5333333333333333 -0.6 0  -0.4666666666666667 -0.6 0  -0.4 -0.6 0  -0.3333333333333334 -0.6 0  -0.2666666666666667 -0.6 0  -0.2 -0.6 0  -0.1333333333333333 -0.6 0  -0.06666666666666665 -0.6 0  0 -0.6 0  0.06666666666666665 -0.6 0  0.1333333333333333 -0.6 0  0.2 -0.6 0  0.2666666666666666 -0.6 0  0.3333333333333333 -0.6 0  0.3999999999999999 -0.6 0  0.4666666666666666 -0.6 0  0.5333333333333334 -0.6 0  0.6000000000000001 -0.6 0  0.6666666666666667 -0.6 0  0.7333333333333334 -0.6 0  0.8 -0.6 0  0.8666666666666667 -0.6 0  0.9333333333333333 -0.6 0  1 -0.6 0  -1 -0.5333333333333333 0  -0.9333333333333333 -0.5333333333333333 0  -0.8666666666666667 -0.5333333333333333 0  -0.8 -0.5333333333333333 0  -0.7333333333333334 -0.5333333333333333 0  -0.6666666666666667 -0.5333333333333333 0  -0.6 -0.5333333333333333 0  -0.5333333333333333 -0.5333333333333333 0  -0.4666666666666667 -0.5333333333333333 0  -0.4 -0.5333333333333333 0  -0.3333333333333334 -0.5333333333333333 0  -0.2666666666666667 -0.5333333333333333 0  -0.2 -0.5333333333333333 0  -0.1333333333333333 -0.5333333333333333 0  -0.06666666666666665 -0.5333333333333333 0  0 -0.5333333333333333 0  0.06666666666666665 -0.5333333333333333 0  0.1333333333333333 -0.5333333333333333 0  0.2 -0.5333333333333333 0  0.2666666666666666 -0.5333333333333333 0  0.3333333333333333 -0.5333333333333333 0  0.3999999999999999 -0.5333333333333333 0  0.4666666666666666 -0.5333333333333333 0  0.5333333333333334 -0.5333333333333333 0  0.6000000000000001 -0.5333333333333333 0  0.6666666666666667 -0.5333333333333333 0  0.7333333333333334 -0.5333333333333333 0  0.8 -0.5333333333333333 0  0.8666666666666667 -0.5333333333333333 0  0.9333333333333333 -0.5333333333333333 0  1 -0.5333333333333333 0  -1 -0.4666666666666667 0  -0.9333333333333333 -0.4666666666666667 0  -0.8666666666666667 -0.4666666666666667 0  -0.8 -0.4666666666666667 0  -0.7333333333333334 -0.4666666666666667 0  -0.6666666666666667 -0.4666666666666667 0  -0.6 -0.4666666666666667 0  -0.5333333333333333 -0.4666666666666667 0  -0.4666666666666667 -0.4666666666666667 0  -0.4 -0.4666666666666667 0  -0.3333333333333334 -0.4666666666666667 0  -0.2666666666666667 -0.4666666666666667 0  -0.2 -0.4666666666666667 0  -0.1333333333333333 -0.4666666666666667 0  -0.06666666666666665 -0.4666666666666667 0  0 -0.4666666666666667 0  0.06666666666666665 -0.4666666666666667 0  0.1333333333333333 -0.4666666666666667 0  0.2 -0.4666666666666667 0  0.2666666666666666 -0.4666666666666667 0  0.3333333333333333 -0.4666666666666667 0  0.3999999999999999 -0.4666666666666667 0  0.4666666666666666 -0.4666666666666667 0  0.5333333333333334 -0.4666666666666667 0  0.6000000000000001 -0.4666666666666667 0  0.6666666666666667 -0.4666666666666667 0  0.7333333333333334 -0.4666666666666667 0  0.8 -0.4666666666666667 0  0.8666666666666667 -0.4666666666666667 0  0.9333333333333333 -0.4666666666666667 0  1 -0.4666666666666667 0  -1 -0.4 0  -0.9333333333333333 -0.4 0  -0.8666666666666667 -0.4 0  -0.8 -0.4 0  -0.7333333333333334 -0.4 0  -0.6666666666666667 -0.4 0  -0.6 -0.4 0  -0.5333333333333333 -0.4 0  -0.4666666666666667 -0.4 0  -0.4 -0.4 0  -0.3333333333333334 -0.4 0  -0.2666666666666667 -0.4 0  -0.2 -0.4 0  -0.1333333333333333 -0.4 0  -0.06666666666666665 -0.4 0  0 -0.4 0  0.06666666666666665 -0.4 0  0.1333333333333333 -0.4 0  0.2 -0.4 0  0.2666666666666666 -0.4 0  0.3333333333333333 -0.4 0  0.3999999999999999 -0.4 0  0.4666666666666666 -0.4 0  0.5333333333333334 -0.4 0  0.6000000000000001 -0.4 0  0.6666666666666667 -0.4 0  0.7333333333333334 -0.4 0 
[...]
<PointData  Scalars="f_24"> 
<DataArray  type="Float64"  Name="f_24"  format="ascii">0.0000000000000000e+00  0.0000000000000000e+00  0.0000000000000000e+00  0.0000000000000000e+00  0.0000000000000000e+00  0.0000000000000000e+00  0.0000000000000000e+00  0.0000000000000000e+00  0.0000000000000000e+00  0.0000000000000000e+00  0.0000000000000000e+00  0.0000000000000000e+00  0.0000000000000000e+00  0.0000000000000000e+00  0.0000000000000000e+00  0.0000000000000000e+00  0.0000000000000000e+00  0.0000000000000000e+00  0.0000000000000000e+00  0.0000000000000000e+00  0.0000000000000000e+00  0.0000000000000000e+00  0.0000000000000000e+00  0.0000000000000000e+00  0.0000000000000000e+00  0.0000000000000000e+00  0.0000000000000000e+00  0.0000000000000000e+00  0.0000000000000000e+00  0.0000000000000000e+00  1.0151167487171659e+01  0.0000000000000000e+00  4.9504391837836691e-02  9.6220982709725233e-02  1.4020981703067131e-01  1.8189839874185226e-01  2.2172756208471611e-01  2.6015250792184413e-01  2.9765740569835014e-01  3.3476796495373412e-01  3.7206513754402487e-01  4.1019960240214132e-01  4.4990929322492046e-01  4.9204288960294235e-01  5.3759255890720825e-01  5.8773995983949068e-01  6.4392075595326670e-01  7.0791491376320315e-01  7.8197342964318017e-01  8.6899734613261981e-01  9.7279308403448117e-01  1.0984409986073371e+00  1.2528349510262371e+00  1.4454858984292802e+00  1.6897447790567908e+00  2.0047176440307712e+00  2.4183843388848292e+00  2.9729464108597572e+00  3.7347673641976673e+00  4.8142592536058419e+00  6.4143996146550304e+00  8.8638615944373562e+00  0.0000000000000000e+00  9.5581589518304935e-02  1.7998506343052534e-01  2.4991946918165600e-01  3.0451605232813966e-01  3.4431024913473579e-01  3.7077623018958999e-01  3.8589196877812909e-01  3.9180002347497550e-01  3.9057411048938639e-01  3.8408024016389219e-01  3.7391505131980374e-01  3.6139926107377585e-01  3.4760714298278689e-01  3.3341850688375385e-01  3.1958602788818563e-01  3.0681772085346470e-01  2.9588194969838266e-01  2.8775210358930714e-01  2.8382278567567854e-01  2.8625386500464578e-01  2.9854167693338884e-01  3.2649373001380178e-01  3.7992553762782894e-01  4.7566994180016375e-01  6.4304263185804911e-01  9.3416277954147742e-01  1.4445188019347648e+00  2.3594637104439147e+00  4.0717179977410867e+00  7.7030567938209673e+00  0.0000000000000000e+00  1.3624862653633465e-01  2.4491024890410121e-01  3.1668817750034611e-01  3.5140866560720174e-01  3.5464247459308446e-01  3.3460644659374927e-01  2.9975055558815694e-01  2.5733862296418658e-01  2.1287261049745790e-01  1.7008108917202255e-01  1.3120006311023374e-01  9.7347878897599993e-02  6.8881648589054337e-02  4.5685998621101238e-02  2.7384602046267439e-02  1.3484897198697774e-02  3.4744969409439791e-03  -3.1085609206850059e-03  -6.6040792674216470e-03  -7.1139768308961723e-03  -4.2628863698592574e-03  3.3302309448070260e-03  1.9222324604027629e-02  5.1716205184647722e-02  1.1946115513990693e-01  2.6364198443922671e-01  5.7539009999450608e-01  1.2595338159500580e+00  2.8180762876372487e+00  6.6601809883333249e+00  0.0000000000000000e+00  1.7044406528300557e-01  2.8961187997253612e-01  3.4308194411905057e-01  3.3857271736003836e-01  2.9515565216812018e-01  2.3335274913641635e-01  1.6930609182407896e-01  1.1297255439155003e-01  6.8825707407210668e-02  3.7542191103820864e-02  1.7683836535668167e-02  6.9525721729693565e-03  2.9589416125633886e-03  3.6050982330894589e-03  7.2175088646923230e-03  1.2540775752390848e-02  1.8666659287308776e-02  2.4940624929952977e-02  3.0867331765518147e-02  3.6027472157572508e-02  4.0025403357362786e-02  4.2529163084575348e-02  4.3604387647807941e-02  4.4941264497229669e-02  5.3632147819426601e-02  9.2875972346146154e-02  2.3044611134212262e-01  6.5720100611394916e-01  1.9051753313682143e+00  5.7269628563182176e+00  0.0000000000000000e+00  1.9781787898259626e-01  3.1609711151060538e-01  3.3954679194866433e-01  2.9281335822951549e-01  2.1416650691449751e-01  1.3517962815168250e-01  7.3148518324582121e-02  3.2735261816595689e-02  1.1099212598499478e-02  2.6317424761112601e-03  1.8731973811197344e-03  4.7359749416404353e-03  8.6735571544959769e-03  1.2381738432665410e-02  1.5393325923589413e-02  1.7728282420314410e-02  1.9642028314951654e-02  2.1459727302076161e-02  2.3467304662241343e-02  2.5829867363076273e-02  2.8512967856175322e-02  3.1189496975208550e-02  3.3146664755923906e-02  3.3405154789317555e-02  3.2093926775313628e-02  3.6958345309850933e-02  8.7938324730212986e-02  3.3555946073673343e-01  1.3070565524560762e+00  4.8954318514523827e+00  0.0000000000000000e+00  2.1857221710505345e-01  3.2809416756561588e-01  3.1806191192980221e-01  2.3682863170219243e-01  1.4145179766031762e-01  6.7100709241849660e-02  2.3407163712750565e-02  4.5840408625234738e-03  3.7027715308395715e-04  2.2922673935218021e-03  5.4291042681241077e-03  7.8007528742831019e-03  9.1391921306094061e-03  9.8916003141178797e-03  1.0647830576059829e-02  1.1900208842605540e-02  1.3990225607114515e-02  1.7129302305681392e-02  2.1425408191837469e-02  2.6879408709665185e-02  3.3335085466114918e-02  4.0376095324939215e-02  4.7155525428804822e-02  5.2107979709578089e-02  5.2756045646446835e-02  4.7894689146037200e-02  5.3141542975707841e-02  1.7424587630055324e-01  8.7955942277019306e-01  4.1579182027455124e+00  0.0000000000000000e+00  2.3328182784175239e-01  3.2972393692640356e-01  2.8856163404770674e-01  1.8435680702085755e-01  8.7651113845243919e-02  2.8601383679174659e-02  4.2566628070614546e-03  -4.2914659792862473e-04  1.7286941829718647e-03  4.2390869467394607e-03  5.3691861652618170e-03  5.4974227779315170e-03  5.3895633214611858e-03  5.5482591231371383e-03  6.1690921466721199e-03  7.2945753071227519e-03  8.9648688620242653e-03  1.1305941305344175e-02  1.4552064394386454e-02  1.9004438089544204e-02  2.4917735250154515e-02  3.2310583533707998e-02  4.0714800035636205e-02  4.8874873197241563e-02  5.4181171721143472e-02  5.2151554144862437e-02  4.3390555420610800e-02  8.8485751968375603e-02  5.8523295622667437e-01  3.5070529145402514e+00  0.0000000000000000e+00  2.4272174979442560e-01  3.2469406346447272e-01  2.5783510205297122e-01  1.4135448941297438e-01  5.2273276614894310e-02  9.9900536511488124e-03  -7.3353845595423373e-04  4.9038585004772056e-04  2.8561836982945571e-03  3.5872793719983241e-03  3.2821030264626036e-03  2.8637519425435912e-03  2.7093481237654331e-03  2.8169269270620478e-03  3.1173634137588177e-03  3.6382463687587630e-03  4.5414850153164023e-03  6.1168181810068410e-03  8.7747954209518603e-03  1.3029831478477019e-02  1.9421096550863777e-02  2.8296675712504622e-02  3.9440629493963909e-02  5.1623618135391035e-02  6.2200417073591314e-02  6.5997996819700325e-02  5.5727240888049721e-02  5.7683022096750719e-02  3.8394450465948238e-01  2.9357677665122037e+00  0.0000000000000000e+00  2.4772963462172626e-01  3.1594861641339650e-01  2.2982539472569530e-01  1.0895430562164737e-01  3.0804560477627474e-02  2.2106813360506412e-03  -9.7725185294843947e-04  1.4614574071688030e-03  2.5147715556155222e-03  2.1774331785007883e-03  1.6391061749165261e-03  1.3475484817813063e-03  1.2310189744855050e-03  1.1775668033136566e-03  1.1913537588572199e-03  1.3569955345922300e-03  1.7995537834429346e-03  2.7067029762229342e-03  4.4027356974322114e-03  7.4333564124134336e-03  1.2585720763692791e-02  2.0720441073180898e-02  3.2263292827005512e-02  4.6436461270248884e-02  6.0546803662949060e-02  6.9527670321068769e-02  6.3476056362938113e-02  4.5058218125187122e-02  2.4315000600063869e-01  2.4372953136699147e+00  0.0000000000000000e+00  2.4911018278201852e-01  3.0561638980910516e-01  2.0641860854456059e-01  8.6019803338724610e-02  1.8537644139366666e-02  -5.3237564712543372e-04  -3.2362174966253437e-04  1.6266829379815186e-03  1.7037370381082597e-03  1.1306644466676271e-03  7.6337145458753243e-04  5.9298733310793675e-04  4.6602078990300047e-04  3.6261340563289079e-04  3.2265799008521716e-04  3.7378853247294042e-04  5.5059098596554716e-04  9.6328551094238002e-04  1.8912000844497469e-03  3.9019889770061942e-03  7.9592176910627619e-03  1.5363514119474153e-02  2.7277209990274214e-02  4.3570888415010237e-02  6.1629379758130383e-02  7.5709365692722172e-02  7.5854430566356310e-02  4.9753475748264171e-02  1.5438683264181843e-01  2.0051688863548964e+00  0.0000000000000000e+00  2.4758200804575678e-01  2.9510923457436350e-01  1.8822519795559714e-01  7.0736237658708498e-02  1.1919162225998299e-02  -1.2589021412308776e-03  1.3441283236342448e-04  1.3629596676554175e-03  1.0246679582795047e-03  5.5537003646985948e-04  3.5149060334787870e-04  2.3692659005632627e-04  1.3468632560342992e-04  7.1188817787831631e-05  5.2093379355731897e-05  6.0220719616265464e-05  1.0035743875768673e-04  2.3492780538261898e-04  6.4571082131013803e-04  1.7778007273370250e-03  4.5609390266681217e-03  1.0552278225222844e-02  2.1583403640482338e-02  3.8539815976624120e-02  5.9137086326998434e-02  7.7272742624929183e-02  8.2204938956423959e-02  5.6656022221857304e-02  9.3000242540579522e-02  1.6332225902416020e+00  0.0000000000000000e+00  2.4375014359504052e-01  2.8527315260345337e-01  1.7516614146693757e-01  6.1397644251320986e-02  8.6694080467456160e-03  -1.3117713863220509e-03  2.8610981020733584e-04  1.0182958266616896e-03  5.9718341176707881e-04  2.7588089878599777e-04  1.6375955858895187e-04  8.5371985968064619e-05  2.5716041075892812e-05  3.4055948049041855e-06  -2.3188435558553702e-07  -2.9050865470874603e-06  -2.4597276107420444e-06  2.3429393053113588e-05  1.6459471564979016e-04  7.3523292555686959e-04  2.5769286149909328e-03  7.3760663426035069e-03  1.7563193417293718e-02  3.4954253287874403e-02  5.8217349058253230e-02  8.0187741107594551e-02  9.0258911037817399e-02  6.7430061545287162e-02  5.9882523635515147e-02  1.3155913063374469e+00  0.0000000000000000e+00  2.3810631504437613e-01  2.7653452122190958e-01  1.6685136243918275e-01  5.6698953319546407e-02  7.4993125171254997e-03  -1.1918601993337295e-03  2.3994569381955713e-04  7.3517609297075895e-04  3.6193473694360380e-04  1.4459937582269648e-04  7.9293655905069910e-05  2.9749261660438179e-05  8.2724153294801271e-07  -3.2942974277557012e-06  -2.3260537421186695e-06  -3.9430186513617570e-06  -7.5451707813826471e-06  -1.3633868732327575e-05  8.3524367889366261e-06  2.5461304832607382e-04  1.4164811029326006e-03  5.1788325720433376e-03  1.4331162468026236e-02  3.1648084374974628e-02  5.6510587906811835e-02  8.1890289661275567e-02  9.4827921223961234e-02  7.6829561898083279e-02  3.8494394984024044e-02  1.0467106909827952e+00  0.0000000000000000e+00  2.3102942162626133e-01  2.6902136245680641e-01  1.6278650911515780e-01  5.5783153982860080e-02  7.7986998891567266e-03  -1.0203597030638851e-03  8.9941235803342521e-05  5.3305730061288807e-04  2.4300404317769596e-04  8.2412459385272508e-05  4.1400865135771416e-05  1.2450784167343726e-05  -1.7508231986384336e-06  -1.6944109208635815e-06  -3.3870782132200696e-07  -2.0885403674342774e-07  -1.0542097452397871e-06  -9.1276772165468811e-06  -2.4137674729312776e-05  6.3406652534488787e-05  8.1921112508874809e-04  3.8749775380969233e-03  1.2348360523558458e-02  2.9648468457336076e-02  5.6232447552228768e-02  8.4471374558253876e-02  1.0066791650852619e-01  8.5865894655988942e-02  3.1278279387026334e-02  8.2131717585096520e-01  0.0000000000000000e+00  2.2280744470218405e-01  2.6265316200702332e-01  1.6247199240885812e-01  5.8187068000065227e-02  9.4177251393858675e-03  -7.3949212099115884e-04  -1.1568208836139105e-04  3.8347439605115890e-04  1.8936933983179253e-04  5.4088520580122949e-05  2.3452428215363506e-05  7.8798154680435198e-06  -3.4990327932516866e-07  -7.3957449326265517e-07  -6.1943867722302551e-08  3.5556488123660300e-07  1.4860449754918462e-06  -2.4568151807149228e-06  -2.6105202903249183e-05  -1.1022827687857311e-05  5.2146051678084496e-04  3.1917528723551586e-03  1.1281939134377876e-02  2.8833625219118426e-02  5.6619741248012799e-02  8.7486377280504082e-02  1.0505059849066110e-01  9.3309932754780958e-02  2.8314995754877774e-02  6.3444796794822866e-01  0.0000000000000000e+00  2.1364141587619445e-01  2.5719967036546187e-01  1.6542036856471604e-01  6.3754403154788558e-02  1.2544792386755968e-02  -1.6027132356457541e-04  -3.4480763795068559e-04  2.4230727614001646e-04  1.6933556898685679e-04  4.6999074100137174e-05  1.4183196972894798e-05  5.9752276116831468e-06  1.3046645116846378e-06  2.6865969249281757e-08  -2.3038988188580877e-07  -1.0229926898074966e-07  2.2104612991228987e-06  9.1967315878151198e-07  -2.6043461520851292e-05  -4.2262505982842487e-05  4.2056308883738801e-04  3.0180566127488728e-03  1.1268948752236885e-02  2.9441670851778626e-02  5.8744191014020827e-02  9.1426330122995919e-02  1.1043845512842980e-01  9.9462703932730406e-02  3.1367253126081254e-02  4.8144104961381046e-01  0.0000000000000000e+00  2.0367116489332923e-01  2.5232482509107979e-01  1.7114076948933424e-01  7.2542603690552099e-02  1.7658089125223750e-02  1.0805181672845581e-03  -5.2186849587961990e-04  6.2048061026922623e-05  1.5201337556343408e-04  5.7761186950028095e-05  1.2876619576251927e-05  3.6201670681497919e-06  1.3618268336924821e-06  1.6328488491047428e-07  -5.5294734622219098e-07  -1.4140775226446324e-08  3.6898840819609980e-06  1.0204651324062884e-06  -3.5277018659619817e-05  -5.5041605740010103e-05  4.7545889964849080e-04  3.3858553694477486e-03  1.2338314761624150e-02  3.1781001234387374e-02  6.2456960936898252e-02  9.6574076566893916e-02  1.1540611822383262e-01  1.0438699932472123e-01  3.5107575193123734e-02  3.5793517851988860e-01  0.0000000000000000e+00  1.9297875387150426e-01  2.4760164413492447e-01  1.7908178878394010e-01  8.4706466863947782e-02  2.5501819217494785e-02  3.6205935589741210e-03  -4.2183618957567702e-04  -1.7836992805224990e-04  8.7831271054127351e-05  7.4233191408555583e-05  2.5448493999773028e-05  5.6253910652614406e-06  7.7322697603995220e-07  -4.2681339467111990e-07  -1.2454176186129376e-07  2.4508361573294387e-06  5.9895549837181044e-06  -7.4990868193359321e-06  -5.9951758093963387e-05  -3.8096926304010386e-05  7.8012311620524212e-04  4.4719498613727347e-03  1.4891321063046890e-02  3.6142432603593580e-02  6.8417105196974956e-02  1.0289092470332172e-01  1.2095122488614249e-01  1.0799492540172057e-01  4.0411755027248107e-02  2.5986988767159452e-01  0.0000000000000000e+00  1.8160318611044471e-01  2.4253905519593943e-01  1.8857350561952968e-01  1.0037006798173406e-01  3.7051924989809817e-02  8.5129016000096928e-03  5.2342998610319233e-04  -3.6235135923420381e-04  -7.9866499719757759e-05  4.6311088932884153e-05  4.2137772077444241e-05  2.0283810139795528e-05  8.8035700090963642e-06  5.1433597479985557e-06  5.7707201086852109e-06  7.0615650207394412e-06  -8.5896997307259430e-07  -4.0108853475459478e-05  -9.1856598186983436e-05  1.1417387159814945e-04  1.6006204121834480e-03  6.7827351709903666e-03  1.9470973220485119e-02  4.3161802638576052e-02  7.6701935538926264e-02  1.1060988858832084e-01  1.2623316246392999e-01  1.1050636354779352e-01  4.4760725145119237e-02  1.8348548540701273e-01  0.0000000000000000e+00  1.6955778011117797e-01  2.3657428349357021e-01  1.9874741986187167e-01  1.1942670017652975e-01  5.3384860871507435e-02  1.7331003428661219e-02  3.5184888431383649e-03  4.8620264810913600e-05  -2.7031582334624272e-04  -1.0123729724483552e-04  -6.3005737143077826e-06  1.5710407369155102e-05  1.4722724594141347e-05  1.0339261277768759e-05  4.2802439327157884e-06  -1.1115242422417006e-05  -4.7417901669365084e-05  -9.5709477849584501e-05  -1.2230963106259633e-05  7.4835426979764268e-04  3.6078482242648071e-03  1.1210005476838753e-02  2.7064036036566257e-02  5.3413173756460708e-02  8.7669915958964645e-02  1.1938477985812451e-01  1.3133723796737687e-01  1.1164591493781473e-01  4.8475934338586532e-02  1.2532305539718103e-01  0.0000000000000000e+00  1.5680865665179922e-01  2.2910226029488159e-01  2.0847021846436059e-01  1.4132208559196344e-01  7.5409375955784022e-02  3.2144450052507351e-02  1.0744405138805627e-02  2.5576957683030991e-03  2.1535687633285409e-04  -1.9363241234736766e-04  -1.6186770890684452e-04  -9.6789497361106114e-05  -6.2983430016784432e-05  -5.5251473940446123e-05  -6.6158512685235248e-05  -8.9443657117740176e-05  -9.4162856502737330e-05  4.5934739884907476e-05  7.1663864661451629e-04  2.8334936981851064e-03  8.1523832206386419e-03  1.9282434735623365e-02  3.8878550245623242e-02  6.7592578311208157e-02  1.0115274594671081e-01  1.2889646779735103e-01  1.3549325468167256e-01  1.1140736679408010e-01  5.0564190211939128e-02  8.2224456646090488e-02  0.0000000000000000e+00  1.4334129797838591e-01  2.1946971704935966e-01  2.1629688901620062e-01  1.6475135286190870e-01  1.0334153171810646e-01  5.5100733122507094e-02  2.5445732102956538e-02  1.0291452034495682e-02  3.6537768092164248e-03  1.1153294152311251e-03  2.5923860997430513e-04  6.6362682010141908e-06  -5.1871805155099187e-05  -4.6762651726874871e-05  2.7101117108959695e-06  1.4633957719626303e-04  5.3452980433007222e-04  1.5120923625008399e-03  3.7757905958163349e-03  8.5438223382873681e-03  1.7627993503051394e-02  3.3083382115935388e-02  5.6250393499633143e-02  8.5929078984659901e-02  1.1666208036193479e-01  1.3818907762194232e-01  1.3813990367225742e-01  1.0941539538533515e-01  5.1131358156857196e-02  5.1332323490685360e-02  0.0000000000000000e+00  1.2905652915686960e-01  2.0700510985780451e-01  2.2044109812364229e-01  1.8741333029510240e-01  1.3599004843362500e-01  8.7456883661049506e-02  5.1292815988220275e-02  2.8190898705053011e-02  1.4971464360715165e-02  7.9811531110050016e-03  4.4839012819870823e-03  2.8166474611973449e-03  2.1019498115388622e-03  1.9415571639648565e-03  2.2219933545198937e-03  3.0336731779623378e-03  4.6727675445829529e-03  7.6954055193866515e-03  1.2982817331683693e-02  2.1745879388264857e-02  3.5349209278355179e-02  5.4803029144615212e-02  7.9857249816332784e-02  1.0782331328685228e-01  1.3277971157197849e-01  1.4595847607945378e-01  1.3829118499299403e-01  1.0541895707264581e-01  4.9911671127804140e-02  3.0090065600863126e-02  0.0000000000000000e+00  1.1394824962486358e-01  1.9106085495632277e-01  2.1887012646068504e-01  2.0583054135419865e-01  1.6989550479914958e-01  1.2786420608225557e-01  9.0300089124761215e-02  6.1425021058284617e-02  4.1326425044378473e-02  2.8279790218942752e-02  2.0259184199908728e-02  1.5616208383609416e-02  1.3241678555348278e-02  1.2507984936221135e-02  1.3166222844805394e-02  1.5268187448786811e-02  1.9122130004187637e-02  2.5261614097806757e-02  3.4387740648704930e-02  4.7227724729238835e-02  6.4257763387167280e-02  8.5231650788240937e-02  1.0861248922278056e-01  1.3099034310944713e-01  1.4706534694653497e-01  1.5027116099694923e-01  1.3494159003212838e-01  9.9014271568337392e-02  4.6993369365171386e-02  1.6241867979474640e-02  0.0000000000000000e+00  9.7839214931881219e-02  1.7099404595999801e-01  2.0936384197864163e-01  2.1542371643213890e-01  1.9876773151864938e-01  1.7045765332500371e-01  1.3938059895759383e-01  1.1102010884397588e-01  8.7842486935046191e-02  7.0317450308387874e-02  5.7908023892722968e-02  4.9760171185286410e-02  4.5080455404756678e-02  4.3293511771530527e-02  4.4075509171717611e-02  4.7328883915692288e-02  5.3127515620612194e-02  6.1637231166298309e-02  7.2999051007085466e-02  8.7163512720116312e-02  1.0366192272261301e-01  1.2134461060026853e-01  1.3813657944420249e-01  1.5093550357200364e-01  1.5585410836608679e-01  1.4882182288769744e-01  1.2696790203498770e-01  8.9876455782887263e-02  4.2412593357893928e-02  7.8326909623238038e-03  0.0000000000000000e+00  8.0771911050561848e-02  1.4636749839004412e-01  1.8993213513545479e-01  2.1106897232332406e-01  2.1372200811919662e-01  2.0369094203038229e-01  1.8670124926272674e-01  1.6732300552924742e-01  1.4864836631726594e-01  1.3244652657374803e-01  1.1951947965872735e-01  1.1007035966114841e-01  1.0399299740239520e-01  1.0106065233853981e-01  1.0102555107500562e-01  1.0365204751571166e-01  1.0870223993314035e-01  1.1588764595327139e-01  1.2479567392070423e-01  1.3479717740149