<?xml version="1.0"?>
<VTKFile type="UnstructuredGrid"  version="0.1"  >
<UnstructuredGrid>
<Piece  NumberOfPoints="961" NumberOfCells="1800">
<Points>
<DataArray  type="Float64"  NumberOfComponents="3"  format="ascii">-1 -1 0  -0.9333333333333333 -1 0  -0.8666666666666667 -1 0  -0.8 -1 0  -0.7333333333333334 -1 0  -0.6666666666666667 -1 0  -0.6 -1 0  -0.5333333333333333 -1 0  -0.4666666666666667 -1 0  -0.4 -1 0  -0.3333333333333334 -1 0  -0.2666666666666667 -1 0  -0.2 -1 0  -0.1333333333333333 -1 0  -0.06666666666666665 -1 0  0 -1 0  0.06666666666666665 -1 0  0.1333333333333333 -1 0  0.2 -1 0  0.2666666666666666 -1 0  0.3333333333333333 -1 0  0.3999999999999999 -1 0  0.4666666666666666 -1 0  0.5333333333333334 -1 0  0.6000000000000001 -1 0  0.6666666666666667 -1 0  0.7333333333333334 -1 0  0.8 -1 0  0.8666666666666667 -1 0  0.9333333333333333 -1 0  1 -1 0  -1 -0.9333333333333333 0  -0.9333333333333333 -0.9333333333333333 0  -0.8666666666666667 -0.9333333333333333 0  -0.8 -0.9333333333333333 0  -0.7333333333333334 -0.9333333333333333 0  -0.6666666666666667 -0.9333333333333333 0  -0.6 -0.9333333333333333 0  -0.5333333333333333 -0.9333333333333333 0  -0.4666666666666667 -0.9333333333333333 0  -0.4 -0.9333333333333333 0  -0.3333333333333334 -0.9333333333333333 0  -0.2666666666666667 -0.9333333333333333 0  -0.2 -0.9333333333333333 0  -0.1333333333333333 -0.9333333333333333 0  -0.06666666666666665 -0.9333333333333333 0  0 -0.9333333333333333 0  0.06666666666666665 -0.9333333333333333 0  0.1333333333333333 -0.9333333333333333 0  0.2 -0.9333333333333333 0  0.2666666666666666 -0.9333333333333333 0  0.3333333333333333 -0.9333333333333333 0  0.3999999999999999 -0.9333333333333333 0  0.4666666666666666 -0.9333333333333333 0  0.5333333333333334 -0.9333333333333333 0  0.6000000000000001 -0.9333333333333333 0  0.6666666666666667 -0.9333333333333333 0  0.7333333333333334 -0.9333333333333333 0  0.8 -0.9333333333333333 0  0.8666666666666667 -0.9333333333333333 0  0.9333333333333333 -0.9333333333333333 0  1 -0.9333333333333333 0  -1 -0.8666666666666667 0  -0.9333333333333333 -0.8666666666666667 0  -0.8666666666666667 -0.8666666666666667 0  -0.8 -0.8666666666666667 0  -0.7333333333333334 -0.8666666666666667 0  -0.6666666666666667 -0.8666666666666667 0  -0.6 -0.8666666666666667 0  -0.5333333333333333 -0.8666666666666667 0  -0.4666666666666667 -0.8666666666666667 0  -0.4 -0.8666666666666667 0  -0.3333333333333334 -0.8666666666666667 0  -0.2666666666666667 -0.8666666666666667 0  -0.2 -0.8666666666666667 0  -0.1333333333333333 -0.8666666666666667 0  -0.06666666666666665 -0.8666666666666667 0  0 -0.8666666666666667 0  0.06666666666666665 -0.8666666666666667 0  0.1333333333333333 -0.8666666666666667 0  0.2 -0.8666666666666667 0  0.2666666666666666 -0.8666666666666667 0  0.3333333333333333 -0.8666666666666667 0  0.3999999999999999 -0.8666666666666667 0  0.4666666666666666 -0.8666666666666667 0  0.5333333333333334 -0.8666666666666667 0  0.6000000000000001 -0.8666666666666667 0  0.6666666666666667 -0.8666666666666667 0  0.7333333333333334 -0.8666666666666667 0  0.8 -0.8666666666666667 0  0.8666666666666667 -0.8666666666666667 0  0.9333333333333333 -0.8666666666666667 0  1 -0.8666666666666667 0  -1 -0.8 0  -0.9333333333333333 -0.8 0  -0.8666666666666667 -0.8 0  -0.8 -0.8 0  -0.7333333333333334 -0.8 0  -0.6666666666666667 -0.8 0  -0.6 -0.8 0  -0.5333333333333333 -0.8 0  -0.4666666666666667 -0.8 0  -0.4 -0.8 0  -0.3333333333333334 -0.8 0  -0.2666666666666667 -0.8 0  -0.2 -0.8 0  -0.1333333333333333 -0.8 0  -0.06666666666666665 -0.8 0  0 -0.8 0  0.06666666666666665 -0.8 0  0.1333333333333333 -0.8 0  0.2 -0.8 0  0.2666666666666666 -0.8 0  0.3333333333333333 -0.8 0  0.3999999999999999 -0.8 0  0.4666666666666666 -0.8 0  0.5333333333333334 -0.8 0  0.6000000000000001 -0.8 0  0.6666666666666667 -0.8 0  0.7333333333333334 -0.8 0  0.8 -0.8 0  0.8666666666666667 -0.8 0  0.9333333333333333 -0.8 0  1 -0.8 0  -1 -0.7333333333333334 0  -0.9333333333333333 -0.7333333333333334 0  -0.8666666666666667 -0.7333333333333334 0  -0.8 -0.7333333333333334 0  -0.7333333333333334 -0.7333333333333334 0  -0.6666666666666667 -0.7333333333333334 0  -0.6 -0.7333333333333334 0  -0.5333333333333333 -0.7333333333333334 0  -0.4666666666666667 -0.7333333333333334 0  -0.4 -0.7333333333333334 0  -0.3333333333333334 -0.7333333333333334 0  -0.2666666666666667 -0.7333333333333334 0  -0.2 -0.7333333333333334 0  -0.1333333333333333 -0.7333333333333334 0  -0.06666666666666665 -0.7333333333333334 0  0 -0.7333333333333334 0  0.06666666666666665 -0.7333333333333334 0  0.1333333333333333 -0.7333333333333334 0  0.2 -0.7333333333333334 0  0.2666666666666666 -0.7333333333333334 0  0.3333333333333333 -0.7333333333333334 0  0.3999999999999999 -0.7333333333333334 0  0.4666666666666666 -0.7333333333333334 0  0.5333333333333334 -0.7333333333333334 0  0.6000000000000001 -0.7333333333333334 0  0.6666666666666667 -0.7333333333333334 0  0.7333333333333334 -0.7333333333333334 0  0.8 -0.7333333333333334 0  0.8666666666666667 -0.7333333333333334 0  0.9333333333333333 -0.7333333333333334 0  1 -0.7333333333333334 0  -1 -0.6666666666666667 0  -0.9333333333333333 -0.6666666666666667 0  -0.8666666666666667 -0.6666666666666667 0  -0.8 -0.6666666666666667 0  -0.7333333333333334 -0.6666666666666667 0  -0.6666666666666667 -0.6666666666666667 0  -0.6 -0.6666666666666667 0  -0.5333333333333333 -0.6666666666666667 0  -0.4666666666666667 -0.6666666666666667 0  -0.4 -0.6666666666666667 0  -0.3333333333333334 -0.6666666666666667 0  -0.2666666666666667 -0.6666666666666667 0  -0.2 -0.6666666666666667 0  -0.1333333333333333 -0.6666666666666667 0  -0.06666666666666665 -0.6666666666666667 0  0 -0.6666666666666667 0  0.06666666666666665 -0.6666666666666667 0  0.1333333333333333 -0.6666666666666667 0  0.2 -0.6666666666666667 0  0.2666666666666666 -0.6666666666666667 0  0.3333333333333333 -0.6666666666666667 0  0.3999999999999999 -0.6666666666666667 0  0.4666666666666666 -0.6666666666666667 0  0.5333333333333334 -0.6666666666666667 0  0.6000000000000001 -0.6666666666666667 0  0.6666666666666667 -0.6666666666666667 0  0.7333333333333334 -0.6666666666666667 0  0.8 -0.6666666666666667 0  0.8666666666666667 -0.6666666666666667 0  0.9333333333333333 -0.6666666666666667 0  1 -0.6666666666666667 0  -1 -0.6 0  -0.9333333333333333 -0.6 0  -0.8666666666666667 -0.6 0  -0.8 -0.6 0  -0.7333333333333334 -0.6 0  -0.6666666666666667 -0.6 0  -0.6 -0.6 0  -0.5333333333333333 -0.6 0  -0.4666666666666667 -0.6 0  -0.4 -0.6 0  -0.3333333333333334 -0.6 0  -0.2666666666666667 -0.6 0  -0.2 -0.6 0  -0.1333333333333333 -0.6 0  -0.06666666666666665 -0.6 0  0 -0.6 0  0.06666666666666665 -0.6 0  0.1333333333333333 -0.6 0  0.2 -0.6 0  0.2666666666666666 -0.6 0  0.3333333333333333 -0.6 0  0.3999999999999999 -0.6 0  0.4666666666666666 -0.6 0  0.5333333333333334 -0.6 0  0.6000000000000001 -0.6 0  0.6666666666666667 -0.6 0  0.7333333333333334 -0.6 0  0.8 -0.6 0  0.8666666666666667 -0.6 0  0.9333333333333333 -0.6 0  1 -0.6 0  -1 -0.5333333333333333 0  -0.9333333333333333 -0.5333333333333333 0  -0.8666666666666667 -0.5333333333333333 0  -0.8 -0.5333333333333333 0  -0.7333333333333334 -0.5333333333333333 0  -0.6666666666666667 -0.5333333333333333 0  -0.6 -0.5333333333333333 0  -0.5333333333333333 -0.5333333333333333 0  -0.4666666666666667 -0.5333333333333333 0  -0.4 -0.5333333333333333 0  -0.3333333333333334 -0.5333333333333333 0  -0.2666666666666667 -0.5333333333333333 0  -0.2 -0.5333333333333333 0  -0.1333333333333333 -0.5333333333333333 0  -0.06666666666666665 -0.5333333333333333 0  0 -0.5333333333333333 0  0.06666666666666665 -0.5333333333333333 0  0.1333333333333333 -0.5333333333333333 0  0.2 -0.5333333333333333 0  0.2666666666666666 -0.5333333333333333 0  0.3333333333333333 -0.5333333333333333 0  0.3999999999999999 -0.5333333333333333 0  0.4666666666666666 -0.5333333333333333 0  0.5333333333333334 -0.5333333333333333 0  0.6000000000000001 -0.5333333333333333 0  0.6666666666666667 -0.5333333333333333 0  0.7333333333333334 -0.5333333333333333 0  0.8 -0.5333333333333333 0  0.8666666666666667 -0.5333333333333333 0  0.9333333333333333 -0.5333333333333333 0  1 -0.5333333333333333 0  -1 -0.4666666666666667 0  -0.9333333333333333 -0.4666666666666667 0  -0.8666666666666667 -0.4666666666666667 0  -0.8 -0.4666666666666667 0  -0.7333333333333334 -0.4666666666666667 0  -0.6666666666666667 -0.4666666666666667 0  -0.6 -0.4666666666666667 0  -0.5333333333333333 -0.4666666666666667 0  -0.4666666666666667 -0.4666666666666667 0  -0.4 -0.4666666666666667 0  -0.3333333333333334 -0.4666666666666667 0  -0.2666666666666667 -0.4666666666666667 0  -0.2 -0.4666666666666667 0  -0.1333333333333333 -0.4666666666666667 0  -0.06666666666666665 -0.4666666666666667 0  0 -0.4666666666666667 0  0.06666666666666665 -0.4666666666666667 0  0.1333333333333333 -0.4666666666666667 0  0.2 -0.4666666666666667 0  0.2666666666666666 -0.4666666666666667 0  0.3333333333333333 -0.4666666666666667 0  0.3999999999999999 -0.4666666666666667 0  0.4666666666666666 -0.4666666666666667 0  0.5333333333333334 -0.4666666666666667 0  0.6000000000000001 -0.4666666666666667 0  0.6666666666666667 -0.4666666666666667 0  0.7333333333333334 -0.4666666666666667 0  0.8 -0.4666666666666667 0  0.8666666666666667 -0.4666666666666667 0  0.9333333333333333 -0.4666666666666667 0  1 -0.4666666666666667 0  -1 -0.4 0  -0.9333333333333333 -0.4 0  -0.8666666666666667 -0.4 0  -0.8 -0.4 0  -0.7333333333333334 -0.4 0  -0.6666666666666667 -0.4 0  -0.6 -0.4 0  -0.5333333333333333 -0.4 0  -0.4666666666666667 -0.4 0  -0.4 -0.4 0  -0.3333333333333334 -0.4 0  -0.2666666666666667 -0.4 0  -0.2 -0.4 0  -0.1333333333333333 -0.4 0  -0.06666666666666665 -0.4 0  0 -0.4 0  0.06666666666666665 -0.4 0  0.1333333333333333 -0.4 0  0.2 -0.4 0  0.2666666666666666 -0.4 0  0.3333333333333333 -0.4 0  0.3999999999999999 -0.4 0  0.4666666666666666 -0.4 0  0.5333333333333334 -0.4 0  0.6000000000000001 -0.4 0  0.6666666666666667 -0.4 0  0.7333333333333334 -0.4 0 
[...]
<PointData  Scalars="f_24"> 
<DataArray  type="Float64"  Name="f_24"  format="ascii">0.0000000000000000e+00  0.0000000000000000e+00  0.0000000000000000e+00  0.0000000000000000e+00  0.0000000000000000e+00  0.0000000000000000e+00  0.0000000000000000e+00  0.0000000000000000e+00  0.0000000000000000e+00  0.0000000000000000e+00  0.0000000000000000e+00  0.0000000000000000e+00  0.0000000000000000e+00  0.0000000000000000e+00  0.0000000000000000e+00  0.0000000000000000e+00  0.0000000000000000e+00  0.0000000000000000e+00  0.0000000000000000e+00  0.0000000000000000e+00  0.0000000000000000e+00  0.0000000000000000e+00  0.0000000000000000e+00  0.0000000000000000e+00  0.0000000000000000e+00  0.0000000000000000e+00  0.0000000000000000e+00  0.0000000000000000e+00  0.0000000000000000e+00  0.0000000000000000e+00  1.1735151299588631e+01  0.0000000000000000e+00  5.7066068482404732e-02  1.1112275173612700e-01  1.6192667751606307e-01  2.1000818579129851e-01  2.5589228527178620e-01  3.0010838358148795e-01  3.4321947029846278e-01  3.8583678194695187e-01  4.2863601651998512e-01  4.7237435004602973e-01  5.1791075902767614e-01  5.6623324000185971e-01  6.1849670267106949e-01  6.7607615893096873e-01  7.4064127002272329e-01  8.1426066961014443e-01  8.9954835382729803e-01  9.9987048715972637e-01  1.1196404057934006e+00  1.2647444991542152e+00  1.4431657894476724e+00  1.6659127277152768e+00  1.9484326999632775e+00  2.3128257525454816e+00  2.7914495565165285e+00  3.4331012211397094e+00  4.3145075470834113e+00  5.5633126861453812e+00  7.4141593799750565e+00  1.0246974748548576e+01  0.0000000000000000e+00  1.1013799098757414e-01  2.0784539516494316e-01  2.8860604042116311e-01  3.5150382281928488e-01  3.9718458318257299e-01  4.2735173443392482e-01  4.4429358440950406e-01  4.5048797998276385e-01  4.4833517877803902e-01  4.3999751791137420e-01  4.2732833354568706e-01  4.1186479169156387e-01  3.9486239532177131e-01  3.7735564014153178e-01  3.6023655025881474e-01  3.4435075520947622e-01  3.3061955336423077e-01  3.2020762199794667e-01  3.1477301454360568e-01  3.1686443984045981e-01  3.3058049680653728e-01  3.6269472805406827e-01  4.2461492233224829e-01  5.3585932931309765e-01  7.3037212235076676e-01  1.0684513140233114e+00  1.6605196759682244e+00  2.7208681126013836e+00  4.7034788465383723e+00  8.9050384656789507e+00  0.0000000000000000e+00  1.5692955445683335e-01  2.8278591659041813e-01  3.6565836969299526e-01  4.0548296877624107e-01  4.0873821630902757e-01  3.8491896143185611e-01  3.4379687016986227e-01  2.9377081456119825e-01  2.4120736826249486e-01  1.9042456099055097e-01  1.4401597201030564e-01  1.0328363866829356e-01  6.8650309433597706e-02  3.9994671902805805e-02  1.6898408708331692e-02  -1.1828722616418952e-03  -1.4803625825155792e-02  -2.4442121761817391e-02  -3.0412745681252018e-02  -3.2728802621533215e-02  -3.0825088205888296e-02  -2.2950515910807316e-02  -4.8237942187797358e-03  3.3324124492761543e-02  1.1320795960777587e-01  2.8256236710741306e-01  6.4681592442152192e-01  1.4427767550701249e+00  3.2507123875452835e+00  7.6994327676601015e+00  0.0000000000000000e+00  1.9621382398929615e-01  3.3433884557143700e-01  3.9605350367484615e-01  3.9044907174506432e-01  3.3963798774466925e-01  2.6734889093909447e-01  1.9226288136779315e-01  1.2590811276206199e-01  7.3478895121671536e-02  3.5774855307935602e-02  1.1143413205247043e-02  -3.0727475068263667e-03  -9.6474500108133104e-03  -1.1026107896316417e-02  -9.1677677009229484e-03  -5.5448355435630805e-03  -1.2145595855414439e-03  3.0869212737861646e-03  6.8523479846599906e-03  9.7254897811876531e-03  1.1456262970998833e-02  1.1953742603545290e-02  1.1662274315619548e-02  1.2946990269549470e-02  2.4404948278876844e-02  7.3171577576407992e-02  2.3777132752042396e-01  7.3884646698981504e-01  2.1912663414167968e+00  6.6205956793590310e+00  0.0000000000000000e+00  2.2758442110237143e-01  3.6481981082178705e-01  3.9187085628721990e-01  3.3740264533144637e-01  2.4577700261462695e-01  1.5352451024633676e-01  8.0696968141052053e-02  3.2732158809903426e-02  6.3934077956394712e-03  -4.7763024883775689e-03  -7.0837615790264995e-03  -5.2762677862622353e-03  -2.3444525037396211e-03  1.3524673595482182e-04  1.5368245656420788e-03  1.7874606854571451e-03  1.0879256301116907e-03  -2.6020737717955363e-04  -1.9510921883046555e-03  -3.7270788187900709e-03  -5.4185151136660189e-03  -7.0024303894155497e-03  -8.6862046684538265e-03  -1.0801933799704778e-02  -1.2330116480454525e-02  -3.5632836079832449e-03  6.2105403767925671e-02  3.5868852041771720e-01  1.4952597571259818e+00  5.6593129338293950e+00  0.0000000000000000e+00  2.5127248471529079e-01  3.7853319402070207e-01  3.6696046392576309e-01  2.7259232481578355e-01  1.6160121689781856e-01  7.4714906855693666e-02  2.3174079952407396e-02  3.6715527974319245e-04  -5.5049286514365558e-03  -4.2160382707618202e-03  -1.4683125843247948e-03  3.9927499723256982e-04  9.9828416580746010e-04  7.4181979686198840e-04  1.8449575234335080e-04  -2.5588726426625986e-04  -3.5916065627938286e-04  -6.9714157545975049e-05  5.6141115660892195e-04  1.4293380065385144e-03  2.4127577058742650e-03  3.3822652324186206e-03  4.1281557054211422e-03  4.0757818521747480e-03  1.9352431973509341e-03  -2.1335322102480621e-03  1.0946961270826472e-02  1.6353105831797557e-01  9.9624652418906412e-01  4.8067179723115041e+00  0.0000000000000000e+00  2.6793924975234884e-01  3.8023573799093702e-01  3.3280532104442512e-01  2.1190160752353196e-01  9.9410677712563442e-02  3.0310931501162520e-02  1.3424225842995578e-03  -4.7972072896405073e-03  -2.8661076576349878e-03  -3.7154702925481570e-04  6.4119872217216717e-04  5.3524880980210438e-04  1.0524898045137523e-04  -1.7256017398398286e-04  -1.9481682792929774e-04  -6.6329612383700479e-05  5.6788686455484990e-05  5.4281534051208080e-05  -1.3005406331522836e-04  -4.9281807544499911e-04  -9.8618431981641551e-04  -1.5250459914839419e-03  -1.9887747786940936e-03  -2.3137148391482194e-03  -3.1456961579274111e-03  -6.9304475385915552e-03  -1.0861918610129551e-02  5.5595583676145414e-02  6.5101498227993371e-01  4.0542919442323226e+00  0.0000000000000000e+00  2.7847711612080350e-01  3.7420416456618066e-01  2.9724883151707771e-01  1.6221040225814820e-01  5.8617930313499982e-02  9.0542413480450869e-03  -3.9150229363095132e-03  -2.8829578273865497e-03  -3.1304440758754212e-04  5.4339025705392896e-04  3.0869675442529227e-04  -3.4458068972512449e-05  -1.2838201561903411e-04  -5.0347968734873011e-05  3.8775890569734230e-05  6.0358200065013249e-05  2.9781149489167920e-05  8.8022725971498579e-06  5.9998802801628652e-05  2.2138708037174634e-04  4.9854409863174705e-04  8.6501447774010116e-04  1.2914242984546080e-03  1.8029418783654426e-03  2.3652442610663420e-03  1.1692216209351651e-03  -6.4444117333283344e-03  1.1269186402581160e-02  4.1329414805859960e-01  3.3938637072054756e+00  0.0000000000000000e+00  2.8384998528631061e-01  3.6382998360544122e-01  2.6484007724434638e-01  1.2481638620934603e-01  3.3973893498991568e-02  4.0629937708043089e-04  -3.6120705921263894e-03  -8.9950584187770686e-04  4.2712336564589362e-04  2.8473890936435740e-04  -3.4665442986409586e-05  -8.9930696072982146e-05  -1.3707069709725461e-05  3.0469946320257571e-05  1.6533215158167937e-05  -1.1529464959199981e-05  -1.9348594455486489e-05  -9.5650451948581462e-06  -9.5005261288659809e-06  -4.9003021882052727e-05  -1.4497143554430934e-04  -2.9628630846543938e-04  -5.0553484502757155e-04  -7.2488242512873586e-04  -7.6040482909976465e-04  -8.4906786682431904e-04  -6.5030031493806722e-03  -1.1839078408507495e-02  2.4552822700835986e-01  2.8176098270312298e+00  0.0000000000000000e+00  2.8498377988027396e-01  3.5155890974135096e-01  2.3774626177872379e-01  9.8390978993547207e-02  2.0003873987134619e-02  -2.3956061796996594e-03  -2.2983917961095232e-03  3.0450894174466995e-05  3.6676536101678826e-04  2.7141139422223901e-05  -7.8130807414488498e-05  -1.4596994468732952e-05  2.2016365605058808e-05  7.5754682561947928e-06  -7.7811186881251296e-06  -4.3230983467253201e-06  6.1982209227450846e-06  1.1282228920417139e-05  1.6473890245266492e-05  4.3654652456884601e-05  1.2219451750182891e-04  2.7468903665884723e-04  5.1438941521891911e-04  7.6806572872467626e-04  1.1237966241083737e-03  1.7780555659065638e-03  -3.5143865078400576e-04  -1.4623683279312249e-02  1.3802161606631319e-01  2.3180545776965209e+00  0.0000000000000000e+00  2.8270328908922648e-01  3.3900461930176978e-01  2.1665482769061539e-01  8.0820863832566273e-02  1.2571856326363019e-02  -2.8867604504110313e-03  -1.2932138841212206e-03  2.9352965589645965e-04  1.8589550706322723e-04  -5.5641749994989444e-05  -3.4795830207644217e-05  1.4437850187335488e-05  8.7337621899428918e-06  -5.2102372806351564e-06  -2.8666403772635061e-06  2.0861179017008040e-06  5.1457804077743678e-07  -3.8462869024151504e-06  -4.9873841979269251e-06  -2.2787564055434621e-06  2.0196925559969071e-06  1.3712003055804179e-05  2.7907001868811935e-05  5.7907225469357092e-05  -6.7504667166430320e-05  2.5990081219271139e-04  -3.8258116158767689e-04  -1.4493148198669991e-02  6.2334736589614873e-02  1.8880699413749258e+00  0.0000000000000000e+00  2.7770304644388077e-01  3.2712272663130570e-01  2.0145085184315167e-01  7.0118351015546379e-02  9.0220778352424393e-03  -2.6437076888900257e-03  -7.4236284792032531e-04  2.9911408978410594e-04  7.4347282789501490e-05  -5.5701511617477978e-05  -5.4486992287143903e-06  1.2436921280303308e-05  -8.7883985286921017e-07  -3.4066415976391721e-06  1.1606104260347399e-06  8.8919388604321366e-07  -8.6678543015939454e-07  -4.0857710330124928e-07  1.7209781708689615e-06  8.4434995114845437e-06  3.9157550469359770e-05  1.2335586324522868e-04  3.1096439429112080e-04  5.6574610958100313e-04  8.7608583802978974e-04  1.0376466968502382e-03  2.2082299419645792e-03  -9.4797901317027929e-03  1.9573057153426533e-02  1.5208756084266866e+00  0.0000000000000000e+00  2.7054452084150560e-01  3.1637896448290237e-01  1.9165163202433610e-01  6.4757846258642129e-02  7.8515603151236811e-03  -2.2536615793558937e-03  -5.1417991702590272e-04  2.4466423075819436e-04  3.1256927625222533e-05  -4.0055160177560406e-05  3.2326838615916404e-06  6.6063552287978548e-06  -2.4171668531392233e-06  -9.2500936488879497e-07  1.0617126051187265e-06  -1.5853783628172483e-07  -3.4430181232964944e-07  -4.1372574916809885e-07  -2.4819383180678403e-06  -2.6931588884831889e-06  1.2717626414914770e-05  8.1546601572020857e-05  2.1588877019854572e-04  4.6632597623797936e-04  5.9872815237951014e-04  6.7047057388387081e-04  1.2488693384354360e-03  -5.6152307877754756e-03  -9.3178109565747475e-03  1.2100389773986939e+00  0.0000000000000000e+00  2.6165952360237010e-01  3.0689118321696013e-01  1.8664355983058159e-01  6.3728117594487418e-02  8.3469322206835596e-03  -1.8546579925069473e-03  -4.8291615870429603e-04  1.8985644472685110e-04  2.6212570062546321e-05  -2.8574385171042225e-05  2.4741251618265261e-06  3.9071236056015071e-06  -1.4968630899648290e-06  -3.2168632549762802e-07  3.9358560585096356e-07  -1.2061680963743498e-07  1.5149849010903199e-07  -4.6709315340891648e-08  -2.0677901980772254e-06  -3.8944520825915875e-06  1.5540754765272759e-05  9.8544559809748291e-05  3.3304631082587094e-04  6.6822616514011714e-04  1.1555765529603793e-03  1.1231139614230232e-03  2.0554280033222927e-03  -1.6971382772556682e-03  -2.1440510353836501e-02  9.4947515502449453e-01  0.0000000000000000e+00  2.5137616887086667e-01  2.9852802500940961e-01  1.8579298005675382e-01  6.6460576652938808e-02  1.0328183282083537e-02  -1.3742942147320304e-03  -5.7333520934869638e-04  1.3299884492673494e-04  4.0084362144188882e-05  -2.0464039139955148e-05  -1.6204796689307837e-06  2.9907354615744131e-06  -2.0703520860259011e-07  -2.4249262310338951e-07  3.9356349402423402e-08  -6.3793045073962995e-08  2.8719677172876578e-07  3.7214421912369286e-07  -2.6527910542039272e-06  -7.4028256719759024e-06  6.8766919095928332e-06  1.1533589359815187e-04  3.7447760620428568e-04  8.5035251281717205e-04  1.2528313318458620e-03  1.4767975352100345e-03  1.3066036215197826e-03  8.9827286419735754e-04  -2.8187545752041084e-02  7.3344695622428946e-01  0.0000000000000000e+00  2.3991528579963484e-01  2.9098657253567839e-01  1.8845917736039025e-01  7.2725200456186925e-02  1.3999028285060462e-02  -5.8802500343990737e-04  -7.3142583188705648e-04  4.6169826101116988e-05  6.0903025894319162e-05  -8.7097414549285019e-06  -6.4405434137281420e-06  1.1568143949345192e-06  8.4523603626552168e-07  1.6490402560826584e-07  -7.7818439466155364e-08  -1.3658734211639956e-07  5.7018971706369426e-07  9.3860789098240907e-07  -3.7404244567991163e-06  -1.2688562409653787e-05  1.0636129842966382e-05  1.4997958081539703e-04  5.3388368910505359e-04  1.1122797367551780e-03  1.7737324245067014e-03  1.9559814392834623e-03  1.7241595247518460e-03  2.5858941132155997e-03  -2.7439449887095093e-02  5.5656490410493442e-01  0.0000000000000000e+00  2.2744551509990246e-01  2.8382936079817744e-01  1.9397916954566033e-01  8.2498406725905152e-02  1.9880484227575133e-02  9.2129794485261429e-04  -8.5745518884627859e-04  -1.0980902445756509e-04  6.7404979582803173e-05  1.3378034978763782e-05  -6.6237103758292815e-06  -2.7113068940198074e-06  -1.7569819293724256e-07  -1.0665761109307931e-07  -4.4005708326309430e-07  -3.2552797090933942e-08  1.5084357815223234e-06  1.1933512334171048e-06  -8.3654522938657958e-06  -1.8831768676039361e-05  1.9759342100803000e-05  2.4549610128594691e-04  7.4424775978090666e-04  1.5629054794553776e-03  2.2115752538134038e-03  2.6210697929981023e-03  1.6028249004708659e-03  3.5392264791449068e-03  -2.5268760328375564e-02  4.1378722995993944e-01  0.0000000000000000e+00  2.1403373121657840e-01  2.7652410880055778e-01  2.0158179132974413e-01  9.5824870500247308e-02  2.8758097129885144e-02  3.8723709044683825e-03  -6.8736751299756482e-04  -3.4829655403417390e-04  1.1194942675991095e-05  3.7110436881123009e-05  7.0560255440633015e-06  -2.3629182211170568e-06  -2.2457750803555272e-06  -1.3964721756424083e-06  -4.3973556919873014e-07  1.5980308746378757e-06  3.1948178936404711e-06  -2.1502769906047071e-06  -1.9788342662639949e-05  -2.5807812499843995e-05  7.2442259759226453e-05  4.2853701886380727e-04  1.1669305993240698e-03  2.1638588475663151e-03  3.0009770888846689e-03  3.2617625622234055e-03  2.1356221940802165e-03  3.8017568321206661e-03  -2.0570595373779255e-02  3.0041987326946901e-01  0.0000000000000000e+00  1.9976527462034357e-01  2.6845490133985350e-01  2.1035347166019147e-01  1.1262735892603096e-01  4.1606591009943412e-02  9.4113237872838987e-03  4.1678116779849143e-04  -5.3225901845805972e-04  -1.6690579045921280e-04  8.4995177129819149e-06  2.4606790781115345e-05  1.1776134699619836e-05  4.7873409728052165e-06  3.3153662499041250e-06  4.3767167409502720e-06  5.1496156444749409e-06  -2.8131937091239750e-07  -1.8608845255663163e-05  -4.0674999959993556e-05  -3.0646021498313500e-06  2.2709431538768133e-04  8.3867190415046373e-04  1.8569176704188147e-03  3.1257000509853209e-03  3.9342409746741906e-03  4.1271137230566874e-03  2.5196547499323793e-03  3.8263326678934597e-03  -1.6160483811968232e-02  2.1211648170034222e-01  0.0000000000000000e+00  1.8458905716139512e-01  2.5894046367923845e-01  2.1909394628671666e-01  1.3247510203218366e-01  5.9372614967517820e-02  1.9179070880291468e-02  3.7660649510885759e-03  -6.4061752961329905e-05  -3.7452806029886877e-04  -1.5450342748709212e-04  -2.9980477930894653e-05  5.0786515691235374e-06  9.6635784375763989e-06  7.7227839081160220e-06  2.9268808888691049e-06  -8.5682088483854681e-06  -3.0930254235631283e-05  -5.5164005940247693e-05  -3.2490527041091734e-05  1.5130155073119197e-04  6.7047733869408075e-04  1.6584891786056582e-03  3.0583445310327947e-03  4.4725446321180699e-03  5.2385011252309380e-03  5.0118060357135664e-03  3.1865051501976439e-03  3.5525543887465452e-03  -1.1567557109830274e-02  1.4487841110603256e-01  0.0000000000000000e+00  1.6858000904875345e-01  2.4727312468241880e-01  2.2636112966255556e-01  1.5431867760183191e-01  8.2602819398942387e-02  3.5149086915324743e-02  1.1617164864020521e-02  2.6539120302485415e-03  1.3592142048255690e-04  -2.6823349474502787e-04  -2.0569638386723087e-04  -1.1912031073293221e-04  -7.3512675801720395e-05  -5.8763266904794246e-05  -6.2870265476542496e-05  -7.6243597327979568e-05  -7.8399709277779446e-05  -1.7255842485245572e-05  2.1008834760106912e-04  7.5683368651355992e-04  1.7643472134600611e-03  3.2582580715837055e-03  4.9702834309945888e-03  6.3966986804533110e-03  6.7986937119714815e-03  6.0544603219365280e-03  3.7754658394603419e-03  3.2914496345257454e-03  -7.8414712566277026e-03  9.5054725526667966e-02  0.0000000000000000e+00  1.5158178617169610e-01  2.3269056978285443e-01  2.3028671264439293e-01  1.7615609092919382e-01  1.1075679932144608e-01  5.8976434203650785e-02  2.7040859670345817e-02  1.0754375407324285e-02  3.6834956992615989e-03  1.0307206711904200e-03  1.6996293743447996e-04  -6.3460796429048164e-05  -1.0564421886126821e-04  -9.3906297150956515e-05  -5.4851618745816384e-05  3.3089829520612472e-05  2.2823281411067488e-04  6.2723188921282697e-04  1.3563833047793071e-03  2.5284364702713009e-03  4.1658224723741481e-03  6.0860883965726002e-03  7.8663469589723700e-03  8.8942868983014813e-03  8.6431353978466911e-03  7.0846474796964869e-03  4.3861219725317641e-03  2.9805628510026949e-03  -4.7662744592654573e-03  5.9342197189030950e-02  0.0000000000000000e+00  1.3373775641525143e-01  2.1454876450447355e-01  2.2887714787863558e-01  1.9493686816072484e-01  1.4149567095127713e-01  9.0742570190376695e-02  5.2817572591912762e-02  2.8617386790885765e-02  1.4845700271215616e-02  7.6349899960819834e-03  4.0722543516693577e-03  2.3856348324388446e-03  1.6366573544714077e-03  1.3812150093224442e-03  1.4402324256629615e-03  1.7737019408155667e-03  2.4148061322344528e-03  3.4265605701569936e-03  4.8544939729376181e-03  6.6682551696213982e-03  8.6913287164368750e-03  1.0571544655507768e-02  1.1799644550956556e-02  1.1890065453181952e-02  1.0555382843696958e-02  8.0589760818991010e-03  4.8433678681981066e-03  2.7369345844850601e-03  -2.5659609985984530e-03  3.4785306506558374e-02  0.0000000000000000e+00  1.1478863843153024e-01  1.9213771464104226e-01  2.1978608994891941e-01  2.0636515307036626e-01  1.6981896286067683e-01  1.2705680471516129e-01  8.8821260262783738e-02  5.9462081529255147e-02  3.9082578185540277e-02  2.5891361032228558e-02  1.7765391682728511e-02  1.2959192386928421e-02  1.0265775453304574e-02  8.9362974809325327e-03  8.5407325062522264e-03  8.8436950803860506e-03  9.7090890981019664e-03  1.1026451845059319e-02  1.2651772565464101e-02  1.4360123408184690e-02  1.5829199657724217e-02  1.6656004556924699e-02  1.6454504581924465e-02  1.4973961525373320e-02  1.2271167406876470e-02  8.7730128824535670e-03  5.1207916012440072e-03  2.5066469441417361e-03  -1.0717434266420652e-03  1.8776242079341792e-02  0.0000000000000000e+00  9.5057732687583038e-02  1.6522543117692279e-01  2.0120726232072272e-01  2.0575309985296591e-01  1.8835848084457629e-01  1.5980690854086740e-01  1.2874165777129729e-01  1.0047957140650707e-01  7.7371285244374394e-02  5.9785495661657292e-02  4.7077211193021759e-02  3.8264801811512573e-02  3.2394767360958233e-02  2.8682426467855737e-02  2.6526809786128411e-02  2.5471415991705312e-02  2.5150024693927454e-02  2.5237835809588920e-02  2.5415796089093459e-02  2.5358196648891985e-02  2.4742191508876625e-02  2.3295895433225355e-02  2.0856825343953462e-02  1.7457671657448496e-02  1.3358707116944349e-02  9.0541011300541551e-03  5.1214745111041338e-03  2.2886211289935335e-03  -1.9821725976576211e-04  9.0549006941270226e-03  0.0000000000000000e+00  7.4218543389269198e-02  1.3344569596290934e-01  1.7143041055420372e-01  1.8829296378647489e-01  1.8801875469563162e-01  1.7616225658050641e-01  1.5807906702737648e-01  1.3796830095314269e-01  1.1859926870997636e-01  1.0147054694542822e-01  8.7150040925671315e-02  7.5624700952418508e-02  6.6575641564564261e-02  5.9559463268635336e-02  5.410946390