<?xml version="1.0"?>
<VTKFile type="UnstructuredGrid"  version="0.1"  >
<UnstructuredGrid>
<Piece  NumberOfPoints="961" NumberOfCells="1800">
<Points>
<DataArray  type="Float64"  NumberOfComponents="3"  format="ascii">-1 -1 0  -0.9333333333333333 -1 0  -0.8666666666666667 -1 0  -0.8 -1 0  -0.7333333333333334 -1 0  -0.6666666666666667 -1 0  -0.6 -1 0  -0.5333333333333333 -1 0  -0.4666666666666667 -1 0  -0.4 -1 0  -0.3333333333333334 -1 0  -0.2666666666666667 -1 0  -0.2 -1 0  -0.1333333333333333 -1 0  -0.06666666666666665 -1 0  0 -1 0  0.06666666666666665 -1 0  0.1333333333333333 -1 0  0.2 -1 0  0.2666666666666666 -1 0  0.3333333333333333 -1 0  0.3999999999999999 -1 0  0.4666666666666666 -1 0  0.5333333333333334 -1 0  0.6000000000000001 -1 0  0.6666666666666667 -1 0  0.7333333333333334 -1 0  0.8 -1 0  0.8666666666666667 -1 0  0.9333333333333333 -1 0  1 -1 0  -1 -0.9333333333333333 0  -0.9333333333333333 -0.9333333333333333 0  -0.8666666666666667 -0.9333333333333333 0  -0.8 -0.9333333333333333 0  -0.7333333333333334 -0.9333333333333333 0  -0.6666666666666667 -0.9333333333333333 0  -0.6 -0.9333333333333333 0  -0.5333333333333333 -0.9333333333333333 0  -0.4666666666666667 -0.9333333333333333 0  -0.4 -0.9333333333333333 0  -0.3333333333333334 -0.9333333333333333 0  -0.2666666666666667 -0.9333333333333333 0  -0.2 -0.9333333333333333 0  -0.1333333333333333 -0.9333333333333333 0  -0.06666666666666665 -0.9333333333333333 0  0 -0.9333333333333333 0  0.06666666666666665 -0.9333333333333333 0  0.1333333333333333 -0.9333333333333333 0  0.2 -0.9333333333333333 0  0.2666666666666666 -0.9333333333333333 0  0.3333333333333333 -0.9333333333333333 0  0.3999999999999999 -0.9333333333333333 0  0.4666666666666666 -0.9333333333333333 0  0.5333333333333334 -0.9333333333333333 0  0.6000000000000001 -0.9333333333333333 0  0.6666666666666667 -0.9333333333333333 0  0.7333333333333334 -0.9333333333333333 0  0.8 -0.9333333333333333 0  0.8666666666666667 -0.9333333333333333 0  0.9333333333333333 -0.9333333333333333 0  1 -0.9333333333333333 0  -1 -0.8666666666666667 0  -0.9333333333333333 -0.8666666666666667 0  -0.8666666666666667 -0.8666666666666667 0  -0.8 -0.8666666666666667 0  -0.7333333333333334 -0.8666666666666667 0  -0.6666666666666667 -0.8666666666666667 0  -0.6 -0.8666666666666667 0  -0.5333333333333333 -0.8666666666666667 0  -0.4666666666666667 -0.8666666666666667 0  -0.4 -0.8666666666666667 0  -0.3333333333333334 -0.8666666666666667 0  -0.2666666666666667 -0.8666666666666667 0  -0.2 -0.8666666666666667 0  -0.1333333333333333 -0.8666666666666667 0  -0.06666666666666665 -0.8666666666666667 0  0 -0.8666666666666667 0  0.06666666666666665 -0.8666666666666667 0  0.1333333333333333 -0.8666666666666667 0  0.2 -0.8666666666666667 0  0.2666666666666666 -0.8666666666666667 0  0.3333333333333333 -0.8666666666666667 0  0.3999999999999999 -0.8666666666666667 0  0.4666666666666666 -0.8666666666666667 0  0.5333333333333334 -0.8666666666666667 0  0.6000000000000001 -0.8666666666666667 0  0.6666666666666667 -0.8666666666666667 0  0.7333333333333334 -0.8666666666666667 0  0.8 -0.8666666666666667 0  0.8666666666666667 -0.8666666666666667 0  0.9333333333333333 -0.8666666666666667 0  1 -0.8666666666666667 0  -1 -0.8 0  -0.9333333333333333 -0.8 0  -0.8666666666666667 -0.8 0  -0.8 -0.8 0  -0.7333333333333334 -0.8 0  -0.6666666666666667 -0.8 0  -0.6 -0.8 0  -0.5333333333333333 -0.8 0  -0.4666666666666667 -0.8 0  -0.4 -0.8 0  -0.3333333333333334 -0.8 0  -0.2666666666666667 -0.8 0  -0.2 -0.8 0  -0.1333333333333333 -0.8 0  -0.06666666666666665 -0.8 0  0 -0.8 0  0.06666666666666665 -0.8 0  0.1333333333333333 -0.8 0  0.2 -0.8 0  0.2666666666666666 -0.8 0  0.3333333333333333 -0.8 0  0.3999999999999999 -0.8 0  0.4666666666666666 -0.8 0  0.5333333333333334 -0.8 0  0.6000000000000001 -0.8 0  0.6666666666666667 -0.8 0  0.7333333333333334 -0.8 0  0.8 -0.8 0  0.8666666666666667 -0.8 0  0.9333333333333333 -0.8 0  1 -0.8 0  -1 -0.7333333333333334 0  -0.9333333333333333 -0.7333333333333334 0  -0.8666666666666667 -0.7333333333333334 0  -0.8 -0.7333333333333334 0  -0.7333333333333334 -0.7333333333333334 0  -0.6666666666666667 -0.7333333333333334 0  -0.6 -0.7333333333333334 0  -0.5333333333333333 -0.7333333333333334 0  -0.4666666666666667 -0.7333333333333334 0  -0.4 -0.7333333333333334 0  -0.3333333333333334 -0.7333333333333334 0  -0.2666666666666667 -0.7333333333333334 0  -0.2 -0.7333333333333334 0  -0.1333333333333333 -0.7333333333333334 0  -0.06666666666666665 -0.7333333333333334 0  0 -0.7333333333333334 0  0.06666666666666665 -0.7333333333333334 0  0.1333333333333333 -0.7333333333333334 0  0.2 -0.7333333333333334 0  0.2666666666666666 -0.7333333333333334 0  0.3333333333333333 -0.7333333333333334 0  0.3999999999999999 -0.7333333333333334 0  0.4666666666666666 -0.7333333333333334 0  0.5333333333333334 -0.7333333333333334 0  0.6000000000000001 -0.7333333333333334 0  0.6666666666666667 -0.7333333333333334 0  0.7333333333333334 -0.7333333333333334 0  0.8 -0.7333333333333334 0  0.8666666666666667 -0.7333333333333334 0  0.9333333333333333 -0.7333333333333334 0  1 -0.7333333333333334 0  -1 -0.6666666666666667 0  -0.9333333333333333 -0.6666666666666667 0  -0.8666666666666667 -0.6666666666666667 0  -0.8 -0.6666666666666667 0  -0.7333333333333334 -0.6666666666666667 0  -0.6666666666666667 -0.6666666666666667 0  -0.6 -0.6666666666666667 0  -0.5333333333333333 -0.6666666666666667 0  -0.4666666666666667 -0.6666666666666667 0  -0.4 -0.6666666666666667 0  -0.3333333333333334 -0.6666666666666667 0  -0.2666666666666667 -0.6666666666666667 0  -0.2 -0.6666666666666667 0  -0.1333333333333333 -0.6666666666666667 0  -0.06666666666666665 -0.6666666666666667 0  0 -0.6666666666666667 0  0.06666666666666665 -0.6666666666666667 0  0.1333333333333333 -0.6666666666666667 0  0.2 -0.6666666666666667 0  0.2666666666666666 -0.6666666666666667 0  0.3333333333333333 -0.6666666666666667 0  0.3999999999999999 -0.6666666666666667 0  0.4666666666666666 -0.6666666666666667 0  0.5333333333333334 -0.6666666666666667 0  0.6000000000000001 -0.6666666666666667 0  0.6666666666666667 -0.6666666666666667 0  0.7333333333333334 -0.6666666666666667 0  0.8 -0.6666666666666667 0  0.8666666666666667 -0.6666666666666667 0  0.9333333333333333 -0.6666666666666667 0  1 -0.6666666666666667 0  -1 -0.6 0  -0.9333333333333333 -0.6 0  -0.8666666666666667 -0.6 0  -0.8 -0.6 0  -0.7333333333333334 -0.6 0  -0.6666666666666667 -0.6 0  -0.6 -0.6 0  -0.5333333333333333 -0.6 0  -0.4666666666666667 -0.6 0  -0.4 -0.6 0  -0.3333333333333334 -0.6 0  -0.2666666666666667 -0.6 0  -0.2 -0.6 0  -0.1333333333333333 -0.6 0  -0.06666666666666665 -0.6 0  0 -0.6 0  0.06666666666666665 -0.6 0  0.1333333333333333 -0.6 0  0.2 -0.6 0  0.2666666666666666 -0.6 0  0.3333333333333333 -0.6 0  0.3999999999999999 -0.6 0  0.4666666666666666 -0.6 0  0.5333333333333334 -0.6 0  0.6000000000000001 -0.6 0  0.6666666666666667 -0.6 0  0.7333333333333334 -0.6 0  0.8 -0.6 0  0.8666666666666667 -0.6 0  0.9333333333333333 -0.6 0  1 -0.6 0  -1 -0.5333333333333333 0  -0.9333333333333333 -0.5333333333333333 0  -0.8666666666666667 -0.5333333333333333 0  -0.8 -0.5333333333333333 0  -0.7333333333333334 -0.5333333333333333 0  -0.6666666666666667 -0.5333333333333333 0  -0.6 -0.5333333333333333 0  -0.5333333333333333 -0.5333333333333333 0  -0.4666666666666667 -0.5333333333333333 0  -0.4 -0.5333333333333333 0  -0.3333333333333334 -0.5333333333333333 0  -0.2666666666666667 -0.5333333333333333 0  -0.2 -0.5333333333333333 0  -0.1333333333333333 -0.5333333333333333 0  -0.06666666666666665 -0.5333333333333333 0  0 -0.5333333333333333 0  0.06666666666666665 -0.5333333333333333 0  0.1333333333333333 -0.5333333333333333 0  0.2 -0.5333333333333333 0  0.2666666666666666 -0.5333333333333333 0  0.3333333333333333 -0.5333333333333333 0  0.3999999999999999 -0.5333333333333333 0  0.4666666666666666 -0.5333333333333333 0  0.5333333333333334 -0.5333333333333333 0  0.6000000000000001 -0.5333333333333333 0  0.6666666666666667 -0.5333333333333333 0  0.7333333333333334 -0.5333333333333333 0  0.8 -0.5333333333333333 0  0.8666666666666667 -0.5333333333333333 0  0.9333333333333333 -0.5333333333333333 0  1 -0.5333333333333333 0  -1 -0.4666666666666667 0  -0.9333333333333333 -0.4666666666666667 0  -0.8666666666666667 -0.4666666666666667 0  -0.8 -0.4666666666666667 0  -0.7333333333333334 -0.4666666666666667 0  -0.6666666666666667 -0.4666666666666667 0  -0.6 -0.4666666666666667 0  -0.5333333333333333 -0.4666666666666667 0  -0.4666666666666667 -0.4666666666666667 0  -0.4 -0.4666666666666667 0  -0.3333333333333334 -0.4666666666666667 0  -0.2666666666666667 -0.4666666666666667 0  -0.2 -0.4666666666666667 0  -0.1333333333333333 -0.4666666666666667 0  -0.06666666666666665 -0.4666666666666667 0  0 -0.4666666666666667 0  0.06666666666666665 -0.4666666666666667 0  0.1333333333333333 -0.4666666666666667 0  0.2 -0.4666666666666667 0  0.2666666666666666 -0.4666666666666667 0  0.3333333333333333 -0.4666666666666667 0  0.3999999999999999 -0.4666666666666667 0  0.4666666666666666 -0.4666666666666667 0  0.5333333333333334 -0.4666666666666667 0  0.6000000000000001 -0.4666666666666667 0  0.6666666666666667 -0.4666666666666667 0  0.7333333333333334 -0.4666666666666667 0  0.8 -0.4666666666666667 0  0.8666666666666667 -0.4666666666666667 0  0.9333333333333333 -0.4666666666666667 0  1 -0.4666666666666667 0  -1 -0.4 0  -0.9333333333333333 -0.4 0  -0.8666666666666667 -0.4 0  -0.8 -0.4 0  -0.7333333333333334 -0.4 0  -0.6666666666666667 -0.4 0  -0.6 -0.4 0  -0.5333333333333333 -0.4 0  -0.4666666666666667 -0.4 0  -0.4 -0.4 0  -0.3333333333333334 -0.4 0  -0.2666666666666667 -0.4 0  -0.2 -0.4 0  -0.1333333333333333 -0.4 0  -0.06666666666666665 -0.4 0  0 -0.4 0  0.06666666666666665 -0.4 0  0.1333333333333333 -0.4 0  0.2 -0.4 0  0.2666666666666666 -0.4 0  0.3333333333333333 -0.4 0  0.3999999999999999 -0.4 0  0.4666666666666666 -0.4 0  0.5333333333333334 -0.4 0  0.6000000000000001 -0.4 0  0.6666666666666667 -0.4 0  0.7333333333333334 -0.4 0 
[...]
<PointData  Scalars="f_24"> 
<DataArray  type="Float64"  Name="f_24"  format="ascii">0.0000000000000000e+00  0.0000000000000000e+00  0.0000000000000000e+00  0.0000000000000000e+00  0.0000000000000000e+00  0.0000000000000000e+00  0.0000000000000000e+00  0.0000000000000000e+00  0.0000000000000000e+00  0.0000000000000000e+00  0.0000000000000000e+00  0.0000000000000000e+00  0.0000000000000000e+00  0.0000000000000000e+00  0.0000000000000000e+00  0.0000000000000000e+00  0.0000000000000000e+00  0.0000000000000000e+00  0.0000000000000000e+00  0.0000000000000000e+00  0.0000000000000000e+00  0.0000000000000000e+00  0.0000000000000000e+00  0.0000000000000000e+00  0.0000000000000000e+00  0.0000000000000000e+00  0.0000000000000000e+00  0.0000000000000000e+00  0.0000000000000000e+00  0.0000000000000000e+00  1.4993079414038455e+01  0.0000000000000000e+00  -2.0787851813992468e-07  -2.1372137757441707e-06  -6.9834011352573298e-06  -1.2644894287935894e-05  -9.6142098020273879e-06  2.3990261262536601e-05  1.2900743146537693e-04  3.7444390984350926e-04  8.7075512436167349e-04  1.7893166238826513e-03  3.3912455466236311e-03  6.0703269733099223e-03  1.0417236166764206e-02  1.7315950927718347e-02  2.8088824489770410e-02  4.4715047882933345e-02  7.0159128759898298e-02  1.0886240033869254e-01  1.6747152897454234e-01  2.5590152745902722e-01  3.8885096247263123e-01  5.8789260381527209e-01  8.8424047825968433e-01  1.3222490167580934e+00  1.9637198837726428e+00  2.8935290510711482e+00  4.2289927861383720e+00  6.1417831005921721e+00  8.9215084434386540e+00  1.3091753334617941e+01  0.0000000000000000e+00  -4.1123629731356618e-07  -3.6140116897063403e-06  -1.2001280768747369e-05  -2.4726188806596402e-05  -3.4936200239827275e-05  -2.8661393262305701e-05  1.5228473262092663e-05  1.2446040356646967e-04  3.3255538952249879e-04  6.7805482795823765e-04  1.2040251124552901e-03  1.9582306982926364e-03  2.9948136319472144e-03  4.3793665292809758e-03  6.2015341936862136e-03  8.6039132695179370e-03  1.1845318212502858e-02  1.6434617424434309e-02  2.3405420956034276e-02  3.4862714618994158e-02  5.5033658666782226e-02  9.2208176743814277e-02  1.6216478197045611e-01  2.9394865317318231e-01  5.3929817456851059e-01  9.8812534957721054e-01  1.7963382537468393e+00  3.2462812167320028e+00  5.9145162016868209e+00  1.1377266938660767e+01  0.0000000000000000e+00  -5.5287194631011794e-07  -4.3053847560273199e-06  -1.3997636750913857e-05  -2.9707133186783734e-05  -4.8074824994296173e-05  -6.4188924488409589e-05  -7.4454821774920697e-05  -7.9347119007744886e-05  -8.5493771288461744e-05  -1.0702878755931084e-04  -1.6643780577512771e-04  -2.9526921517190408e-04  -5.3517547926468006e-04  -9.3986287135495918e-04  -1.5786926366456260e-03  -2.5427682063668029e-03  -3.9537624768638483e-03  -5.9725125175403770e-03  -8.7929383467250759e-03  -1.2573056997781331e-02  -1.7167856407869761e-02  -2.1331129637943973e-02  -2.0658312086047334e-02  -2.8416816508372669e-03  6.2359208597981566e-02  2.4325483614091489e-01  6.8702361612404417e-01  1.7115313453472170e+00  4.0584208145340934e+00  9.8369594035506314e+00  0.0000000000000000e+00  -6.1924097557910311e-07  -4.2655423691964192e-06  -1.3079755640467663e-05  -2.6583634264454102e-05  -4.1955869914399813e-05  -5.6413462241758525e-05  -6.9135933598930268e-05  -8.1684029687658838e-05  -9.6991422483775253e-05  -1.1757618976446021e-04  -1.4363968125806991e-04  -1.7150613327909545e-04  -1.9262527394622763e-04  -1.9324693886440357e-04  -1.5497176316729141e-04  -5.6834332483248796e-05  1.1926747991060442e-04  3.7544441166121977e-04  6.6798914394150999e-04  8.4675938191383616e-04  5.5802766968481910e-04  -8.1985133436920314e-04  -3.8517418830117047e-03  -7.1783418236932156e-03  -1.1276498910097073e-03  4.9957310899051116e-02  2.5236464756070032e-01  8.9612621119569813e-01  2.7806163340338821e+00  8.4586141460612811e+00  0.0000000000000000e+00  -6.1540285848673431e-07  -3.7310462502312546e-06  -1.0511130876381706e-05  -1.9547059065643331e-05  -2.7855149719933855e-05  -3.3159250971808201e-05  -3.4872802477578759e-05  -3.3549259525204970e-05  -2.9729254473909460e-05  -2.3153840785665967e-05  -1.2766779595807968e-05  2.5803711863636687e-06  2.3068811765145053e-05  4.6886391877543746e-05  6.9567861021238838e-05  8.3999481828657464e-05  8.1395944302803828e-05  5.3362948788067814e-05  -6.4287885692701346e-06  -1.0924959885711961e-04  -3.1548837035279861e-04  -8.8075138709830711e-04  -2.5585635817964693e-03  -6.7533099138754309e-03  -1.3654515174178664e-02  -1.1731456014185911e-02  6.0151600698560674e-02  4.3259245849020261e-01  1.8844344970910301e+00  7.2304588223565096e+00  0.0000000000000000e+00  -5.5965522109575506e-07  -2.9804848087908777e-06  -7.5904930781656924e-06  -1.2548403558782153e-05  -1.5379874290308441e-05  -1.4955373557273253e-05  -1.1774816133289767e-05  -7.0837598565333469e-06  -2.0135975470038766e-06  2.6546699513990323e-06  6.2577151736055745e-06  7.9870225932319931e-06  6.9218021538149609e-06  2.4296610589557011e-06  -5.1851413178038889e-06  -1.3968150399963836e-05  -1.9632757601902370e-05  -1.4672811908398851e-05  1.3863588845660577e-05  9.0610083906114846e-05  2.6291885318989352e-04  5.9080033116687446e-04  9.9091683840735190e-04  6.6753248215251960e-04  -2.6634661211016137e-03  -1.0019105799175036e-02  3.2628734869287455e-03  1.9497961159402366e-01  1.2667512312892024e+00  6.1411653279901524e+00  0.0000000000000000e+00  -4.7498791476375579e-07  -2.2247362638610162e-06  -5.0772393131515190e-06  -7.3244054174508055e-06  -7.4333795216382169e-06  -5.4223476775715022e-06  -2.4734541945252080e-06  1.4166897743826672e-07  1.7011114805161595e-06  2.0477812602929361e-06  1.3655088471066659e-06  3.7363490917357149e-08  -1.3776877418109242e-06  -2.1927488727087642e-06  -1.8039900549477762e-06  -1.0988482455524776e-07  1.8862506868105158e-06  1.2974476417158847e-06  -7.6310573913064258e-06  -3.4055740743791153e-05  -8.5695419027497649e-05  -1.4371731957679043e-04  -1.2250388210959155e-04  -1.9184105300451743e-05  -9.6646987283821508e-04  -6.8340013175529476e-03  -1.5200412072217786e-02  6.6650857546012673e-02  8.2478437200509236e-01  5.1798497979060913e+00  0.0000000000000000e+00  -3.8154801315039257e-07  -1.5774466495585509e-06  -3.2154829326475345e-06  -4.0019718240849551e-06  -3.2474659533619493e-06  -1.5494285192705448e-06  3.9547336547409724e-09  7.5739717116574598e-07  7.1393256410062426e-07  2.4700065097438038e-07  -2.3127780105460557e-07  -4.4102624690722397e-07  -2.8686215348302921e-07  1.3001753390140833e-07  5.4169178435519722e-07  6.4315386424175599e-07  3.6965368298714595e-07  3.1505218596013227e-07  2.1530486183539737e-06  8.4318302737651938e-06  2.0202775555336590e-05  3.5309630659721911e-05  8.1862749150186950e-05  3.1907434557474973e-04  7.8977860393844655e-04  -1.0834202674112024e-03  -1.1617394265092193e-02  9.2311160935111686e-03  5.2446181837928396e-01  4.3360726064382638e+00  0.0000000000000000e+00  -2.9311844975226225e-07  -1.0753933138806857e-06  -1.9597627764777303e-06  -2.0930479629918301e-06  -1.3099189611375039e-06  -2.8561825189148793e-07  3.0591995032496647e-07  3.3939983160564815e-07  9.8619159982832749e-08  -1.0345326875775672e-07  -1.3396740119048542e-07  -3.3959405457847659e-08  7.7427866466706433e-08  9.5807809316896362e-08  -4.5647430336500057e-09  -1.5112621013933472e-07  -2.2893426990435050e-07  -2.3655861714970403e-07  -4.9737797218908425e-07  -1.7261595569920591e-06  -5.1189166241267242e-06  -1.6286427489620840e-05  -5.7849806256131968e-05  -1.0419533998008526e-04  1.2012136729542153e-04  1.6822921426623466e-04  -7.5091644526604547e-03  -1.5437468058574872e-02  3.1272727870898115e-01  3.5998383673106322e+00  0.0000000000000000e+00  -2.1703067610389565e-07  -7.1118078890619888e-07  -1.1637043227811064e-06  -1.0671948050438535e-06  -4.9537262015434068e-07  2.7249313541629340e-08  1.8785929158779193e-07  8.8073661153616174e-08  -3.1904790058696696e-08  -5.4719623815602677e-08  -1.0544202023184220e-08  2.6438362181558191e-08  2.0537672456129869e-08  -1.0473437426186814e-08  -2.4736624207604051e-08  2.4496005247752853e-09  5.3813713035096313e-08  8.9552920949983352e-08  1.2381919744059253e-07  3.4347031763939826e-07  1.6615581831574394e-06  7.5408209530044528e-06  1.9615293358798229e-05  6.5126391174213127e-07  9.7559749176838627e-05  7.5826620525676249e-04  -2.3004991229231787e-03  -2.0872344180846658e-02  1.7367578124156388e-01  2.9615959336372271e+00  0.0000000000000000e+00  -1.5575079299102952e-07  -4.5919409571741653e-07  -6.7952742069474125e-07  -5.3905156915908171e-07  -1.7822507797654565e-07  6.3836714618829393e-08  8.1716713602962608e-08  8.8044914417130293e-09  -2.5968236232803942e-08  -1.0843838938157925e-08  8.4890735825007222e-09  7.5504929560768366e-09  -3.1626837267563824e-09  -5.9227847515833936e-09  1.4326921325016056e-09  5.9096488212266020e-09  -3.7946081502425147e-09  -2.2053699340143927e-08  -3.3923063995823042e-08  -7.1018951473030992e-08  -6.3407560928474201e-07  -2.4708935143407541e-06  -3.4861369749472200e-06  -1.1224163625113646e-05  -1.0642206560171215e-04  3.6725738906274991e-04  -8.9714432756187847e-05  -1.8578673986431451e-02  8.0227419676674752e-02  2.4122383979221054e+00  0.0000000000000000e+00  -1.0876423432198255e-07  -2.9079195862850727e-07  -3.9291488497415118e-07  -2.7367820142516664e-07  -6.2496106635425304e-08  4.4301322721648365e-08  3.0589869523520319e-08  -5.4745418890281951e-09  -1.0339197156895487e-08  5.8783518363119400e-10  3.9702337808250247e-09  -9.1488478239521842e-11  -1.9894705672277240e-09  1.4687747709889947e-10  1.4193963331314883e-09  -3.5242715198861665e-10  -1.1929814362675840e-09  2.7160667674837157e-09  7.6616077632184017e-09  1.3485742803937674e-08  2.7675879591872986e-07  2.1902624011229075e-07  1.9456595955048981e-06  1.0970914556400519e-05  -2.0932431042215415e-05  6.5091573678708532e-05  1.2611765004652605e-03  -1.3250235100121358e-02  2.3080801847890586e-02  1.9431030920593837e+00  0.0000000000000000e+00  -7.4096795846669030e-08  -1.8114207918938200e-07  -2.2605702857512803e-07  -1.4145249218033011e-07  -2.2582096172707005e-08  2.4454552002760202e-08  1.0887236630494272e-08  -4.5411246539451304e-09  -3.1797974512771629e-09  1.3266082740556425e-09  9.4497097043872096e-10  -6.0708922474170187e-10  -2.8207381534938121e-10  3.8068779292203121e-10  2.7738049068881647e-11  -3.0452626235567449e-10  1.0084136548089500e-10  3.9832129200220270e-10  -1.1331951717346821e-09  -1.2388626666789977e-09  -1.2344708455304848e-07  3.5667073276703056e-07  -2.7217721695386305e-06  4.7353097383543458e-06  -1.3560738133766871e-05  -1.0727679108223525e-04  1.1838306137394576e-03  -7.6743889185240544e-03  -1.1310565891094726e-02  1.5459715873332169e+00  0.0000000000000000e+00  -4.9313338450935838e-08  -1.1117430563802890e-07  -1.2978643993172208e-07  -7.5159228109926544e-08  -9.4025727628966178e-09  1.2363204680978858e-08  4.1067130697796043e-09  -2.3021801671705825e-09  -9.1195421038388178e-10  6.3438114201395923e-10  1.3928736147293805e-10  -2.2284459101220714e-10  2.6678536680900074e-11  8.0863956667972477e-11  -6.1076383957198978e-11  -1.6134132376488151e-11  2.0359395252976971e-10  -9.2200398547328968e-10  2.6489021003092246e-09  -8.1010596560332346e-09  6.0019503608717648e-08  -2.2731969374237951e-07  1.3702881419681965e-06  -4.8634022477992451e-06  2.9448727756452449e-05  -1.5177161016671219e-04  8.8278868250173646e-04  -3.1262033597290384e-03  -2.8725894085303180e-02  1.2130696944178077e+00  0.0000000000000000e+00  -3.2071128494239209e-08  -6.7253290884991253e-08  -7.4435642006228859e-08  -4.1261198968436365e-08  -5.0639846588390808e-09  5.9923543714900204e-09  1.8386263508327781e-09  -9.7751550036396832e-10  -3.0955939681374146e-10  2.2385250388102990e-10  1.6415702786278215e-11  -4.7401906391276160e-11  -1.0931391621044834e-11  1.0143858258793923e-10  -2.8937080821549157e-10  7.6987233120190562e-10  -2.1193734332012771e-09  6.2779046736611054e-09  -1.9007488236778779e-08  5.6883237120452393e-08  -1.6481034127809314e-07  4.0743281040716367e-07  -8.3740043013208017e-07  -1.8962637497955117e-10  8.7276851071343095e-06  -7.0301396733339665e-05  3.0594865716090166e-04  1.4519178222054143e-04  -3.5821387385063699e-02  9.3706746337740343e-01  0.0000000000000000e+00  -2.0367953854377473e-08  -4.0071100849683003e-08  -4.2610214949544922e-08  -2.3381362223023612e-08  -3.4552930422705403e-09  2.7876497503751863e-09  1.0024750357363367e-09  -3.5673531320441032e-10  -1.4171097623556940e-10  5.8069963745456116e-11  1.8548558191321765e-11  -4.8345431867161223e-12  -9.8043702537719533e-11  4.6222675077536733e-10  -1.6297328281031877e-09  5.0734416836787880e-09  -1.4499261215427508e-08  3.8253239313698393e-08  -9.3133575355675857e-08  2.0924603183943988e-07  -4.3538857622757208e-07  8.5053160442289319e-07  -1.5635708965119743e-06  2.8237718101420995e-06  -4.4325421674448495e-06  1.1351783931880938e-05  -1.1596762218119262e-04  2.0846888685224886e-03  -3.6018416785153155e-02  7.1107918366629796e-01  0.0000000000000000e+00  -1.2610277251478784e-08  -2.3472013225767514e-08  -2.4281249891183025e-08  -1.3582574965062746e-08  -2.6328315691374691e-09  1.1839099827139796e-09  6.0637984755772844e-10  -8.6131139164749856e-11  -7.3038108724066326e-11  -8.1037623774570539e-12  4.9127032540678318e-11  -5.0601404214932802e-11  -9.2905140068687454e-11  8.2760396117762217e-10  -3.4139476584766320e-09  1.0989999652517834e-08  -3.0743345320994623e-08  7.8631575639033769e-08  -1.9034382698854466e-07  4.4704379740554246e-07  -1.0343974509595088e-06  2.3772120216948226e-06  -5.4737246290777874e-06  1.2855269758143686e-05  -3.2536196114125327e-05  9.8240569924787683e-05  -4.2852568353171682e-04  3.0047376662543849e-03  -3.2497370608015864e-02  5.2866338412883007e-01  0.0000000000000000e+00  -7.5898463720141451e-09  -1.3475287322798309e-08  -1.3712448757403606e-08  -7.9973897286866259e-09  -2.0347828378955029e-09  3.8092496245857934e-10  3.6009753693160441e-10  2.5754534442741788e-11  -3.8645203981088920e-11  -1.9847750920009973e-11  6.7192959987552501e-11  -1.4726602670832124e-10  1.5947601948880887e-10  3.4362882107180961e-10  -2.6946571617930125e-09  1.0332325919303246e-08  -3.1476617674134721e-08  8.4817836685008369e-08  -2.1148779124402315e-07  5.0169704172423706e-07  -1.1602562935788294e-06  2.6831848361384031e-06  -6.3700859421857698e-06  1.5961349159798810e-05  -4.3681125342945506e-05  1.3847229416830817e-04  -5.5600025462093823e-04  3.1530071479916157e-03  -2.7074973661015498e-02  3.8382283299938452e-01  0.0000000000000000e+00  -4.4229105561148985e-09  -7.5485444527448084e-09  -7.6266426652240975e-09  -4.7063504970199794e-09  -1.5255771263409100e-09  -7.5426672087877413e-12  1.8769173693671907e-10  5.8063898373803196e-11  -2.2916067625594369e-11  1.1616741587542619e-11  1.2647453274573736e-11  -1.2822598178694617e-10  3.7632656500946319e-10  -6.7176317893972833e-10  3.8575749714286093e-10  2.7545042213980156e-09  -1.5323496350917502e-08  5.4420625808868929e-08  -1.6217651688522561e-07  4.3951802306685111e-07  -1.1262223035128196e-06  2.8025367923667669e-06  -6.9509690892957509e-06  1.7729549482510253e-05  -4.8443174464092624e-05  1.4970839478711790e-04  -5.6380883921435573e-04  2.8385545608286566e-03  -2.1155929644668583e-02  2.7100453790239148e-01  0.0000000000000000e+00  -2.4814267792016999e-09  -4.1008023277406612e-09  -4.1437980000047314e-09  -2.7260149072733967e-09  -1.0877788227202503e-09  -1.6963671751375801e-10  6.9709567901466368e-11  4.4341103891308852e-11  -4.1358284476683593e-12  3.4531653876433939e-11  -7.0534047286472516e-11  6.3047699308246827e-11  1.1032166299033088e-10  -6.6721349653419667e-10  1.7612729923313940e-09  -2.8861925456895270e-09  1.1632085509397730e-09  1.3012646766594062e-08  -6.6653028739252932e-08  2.3078932257779910e-07  -6.8908337388580274e-07  1.9218666649093606e-06  -5.2291333271414197e-06  1.4358220652417636e-05  -4.1264381319171446e-05  1.3018008655702747e-04  -4.8138044766397219e-04  2.2803976122783686e-03  -1.5535200653100481e-02  1.8509974585232669e-01  0.0000000000000000e+00  -1.3300443450363890e-09  -2.1426725690431428e-09  -2.1768670756140783e-09  -1.5292124945782797e-09  -7.2804788841849942e-10  -2.0503359273150704e-10  -4.5784075475778127e-12  1.5467526394661521e-11  1.8520462644448208e-11  5.1958896867012018e-12  -5.1325209276598119e-11  1.5268808848963785e-10  -2.7261785429331209e-10  2.2779949386230341e-10  4.1908010660169884e-10  -2.3084866332276181e-09  5.5595591666821914e-09  -7.1166057372955780e-09  -6.8188133276730517e-09  8.0551563498928064e-08  -3.4015410633586673e-07  1.1322616219653731e-06  -3.4264019888567873e-06  1.0084936348552890e-05  -3.0337653562627064e-05  9.8034840330411325e-05  -3.6195511833815559e-04  1.6610468490897614e-03  -1.0699598034744134e-02  1.2144394325371155e-01  0.0000000000000000e+00  -6.7392424135095712e-10  -1.0646822064722416e-09  -1.0912634563133118e-09  -8.1653872546443820e-10  -4.5087998557102008e-10  -1.7598421988934079e-10  -4.2681908410780469e-11  -2.0603730240844740e-12  1.7026531927673566e-11  -2.5539558791113719e-11  3.8104942760853716e-11  3.3747758249862589e-12  -1.6218858296531443e-10  4.8057816334436761e-10  -8.1371763826040421e-10  5.4854717905008293e-10  1.6871278550078365e-09  -7.7518653075666535e-09  1.7371761855733360e-08  -1.8226341918098621e-08  -4.4753314038741584e-08  3.5940741382713286e-07  -1.5156415886931093e-06  5.3672890495575770e-06  -1.8084634333879889e-05  6.2528175714997858e-05  -2.3825784381590107e-04  1.0923948572249900e-03  -6.8508562732237325e-03  7.5816855901113034e-02  0.0000000000000000e+00  -3.1807337264015200e-10  -4.9528039158710033e-10  -5.1315888885169695e-10  -4.0673526204734384e-10  -2.5368375951978153e-10  -1.2434012362593378e-10  -4.9248714839782411e-11  -8.0958063475328635e-12  -6.1125042688272973e-12  -4.9723206310089012e-12  3.9002905676556372e-11  -9.2340164470141587e-11  1.2468519459125737e-10  -1.4231966821556804e-11  -4.1631809577057169e-10  1.2408773493103985e-09  -2.0214600221603756e-09  1.1818111625392429e-09  4.3068673826029781e-09  -1.6788230322613269e-08  2.6336433510388048e-08  3.2252348158957771e-08  -4.2498649783457806e-07  2.1146979543670256e-06  -8.5711974205191666e-06  3.3193303729495607e-05  -1.3523641296991529e-04  6.3913899609993282e-04  -4.0167256677489920e-03  4.4442448979143581e-02  0.0000000000000000e+00  -1.3690461570392661e-10  -2.1091622585821019e-10  -2.2110662493519744e-10  -1.8416032611425495e-10  -1.2687860554951409e-10  -7.4065762458196362e-11  -3.5988419362607076e-11  -1.3240145939489739e-11  -1.3094866254778314e-11  1.5849415320324882e-11  -2.1243822613077582e-11  -5.0793615229492496e-12  8.9535190024173899e-11  -2.2556515141013313e-10  2.9619996219702123e-10  -2.0374763995644067e-11  -9.2753074174737767e-10  2.3750738633803604e-09  -2.4635936767017265e-09  -3.9158446553524535e-09  2.4840005806214566e-08  -6.0206344493059434e-08  4.6701592528456397e-08  3.6436295675783439e-07  -2.6930586813214109e-06  1.3439037821525310e-05  -6.2949061432915582e-05  3.2161944087556824e-04  -2.1008213925040198e-03  2.3988927062461505e-02  0.0000000000000000e+00  -5.2071398245098546e-11  -7.9515422902118414e-11  -8.4322307083628018e-11  -7.3113092556692728e-11  -5.4834719538826417e-11  -3.5903233261847925e-11  -2.0283185550305981e-11  -1.3023356226806716e-11  -3.0209582735902567e-12  3.9547321276217830e-13  -1.9732845792687165e-11  4.4146301078918072e-11  -5.6687253564285015e-11  -7.3305082407438516e-13  1.8457859147842952e-10  -4.4515682663395593e-10  4.3834767637120285e-10  5.8770997663804356e-10  -3.4332063913339394e-09  7.4450494553790810e-09  -7.3107567013751773e-09  -1.0662619895162296e-08  6.3365061352792103e-08  -1.1234988131018667e-07  -2.4864441115041865e-07  3.3334008079546317e-06  -2.1574974690368872e-05  1.3031284129430483e-04  -9.3663680874224442e-04  1.1568734115770403e-02  0.0000000000000000e+00  -1.6662699190928454e-11  -2.5163466275807728e-11  -2.6925028150653061e-11  -2.4144282424864539e-11  -1.9409730769413559e-11  -1.3367