<?xml version="1.0"?>
<VTKFile type="UnstructuredGrid"  version="0.1"  >
<UnstructuredGrid>
<Piece  NumberOfPoints="961" NumberOfCells="1800">
<Points>
<DataArray  type="Float64"  NumberOfComponents="3"  format="ascii">-1 -1 0  -0.9333333333333333 -1 0  -0.8666666666666667 -1 0  -0.8 -1 0  -0.7333333333333334 -1 0  -0.6666666666666667 -1 0  -0.6 -1 0  -0.5333333333333333 -1 0  -0.4666666666666667 -1 0  -0.4 -1 0  -0.3333333333333334 -1 0  -0.2666666666666667 -1 0  -0.2 -1 0  -0.1333333333333333 -1 0  -0.06666666666666665 -1 0  0 -1 0  0.06666666666666665 -1 0  0.1333333333333333 -1 0  0.2 -1 0  0.2666666666666666 -1 0  0.3333333333333333 -1 0  0.3999999999999999 -1 0  0.4666666666666666 -1 0  0.5333333333333334 -1 0  0.6000000000000001 -1 0  0.6666666666666667 -1 0  0.7333333333333334 -1 0  0.8 -1 0  0.8666666666666667 -1 0  0.9333333333333333 -1 0  1 -1 0  -1 -0.9333333333333333 0  -0.9333333333333333 -0.9333333333333333 0  -0.8666666666666667 -0.9333333333333333 0  -0.8 -0.9333333333333333 0  -0.7333333333333334 -0.9333333333333333 0  -0.6666666666666667 -0.9333333333333333 0  -0.6 -0.9333333333333333 0  -0.5333333333333333 -0.9333333333333333 0  -0.4666666666666667 -0.9333333333333333 0  -0.4 -0.9333333333333333 0  -0.3333333333333334 -0.9333333333333333 0  -0.2666666666666667 -0.9333333333333333 0  -0.2 -0.9333333333333333 0  -0.1333333333333333 -0.9333333333333333 0  -0.06666666666666665 -0.9333333333333333 0  0 -0.9333333333333333 0  0.06666666666666665 -0.9333333333333333 0  0.1333333333333333 -0.9333333333333333 0  0.2 -0.9333333333333333 0  0.2666666666666666 -0.9333333333333333 0  0.3333333333333333 -0.9333333333333333 0  0.3999999999999999 -0.9333333333333333 0  0.4666666666666666 -0.9333333333333333 0  0.5333333333333334 -0.9333333333333333 0  0.6000000000000001 -0.9333333333333333 0  0.6666666666666667 -0.9333333333333333 0  0.7333333333333334 -0.9333333333333333 0  0.8 -0.9333333333333333 0  0.8666666666666667 -0.9333333333333333 0  0.9333333333333333 -0.9333333333333333 0  1 -0.9333333333333333 0  -1 -0.8666666666666667 0  -0.9333333333333333 -0.8666666666666667 0  -0.8666666666666667 -0.8666666666666667 0  -0.8 -0.8666666666666667 0  -0.7333333333333334 -0.8666666666666667 0  -0.6666666666666667 -0.8666666666666667 0  -0.6 -0.8666666666666667 0  -0.5333333333333333 -0.8666666666666667 0  -0.4666666666666667 -0.8666666666666667 0  -0.4 -0.8666666666666667 0  -0.3333333333333334 -0.8666666666666667 0  -0.2666666666666667 -0.8666666666666667 0  -0.2 -0.8666666666666667 0  -0.1333333333333333 -0.8666666666666667 0  -0.06666666666666665 -0.8666666666666667 0  0 -0.8666666666666667 0  0.06666666666666665 -0.8666666666666667 0  0.1333333333333333 -0.8666666666666667 0  0.2 -0.8666666666666667 0  0.2666666666666666 -0.8666666666666667 0  0.3333333333333333 -0.8666666666666667 0  0.3999999999999999 -0.8666666666666667 0  0.4666666666666666 -0.8666666666666667 0  0.5333333333333334 -0.8666666666666667 0  0.6000000000000001 -0.8666666666666667 0  0.6666666666666667 -0.8666666666666667 0  0.7333333333333334 -0.8666666666666667 0  0.8 -0.8666666666666667 0  0.8666666666666667 -0.8666666666666667 0  0.9333333333333333 -0.8666666666666667 0  1 -0.8666666666666667 0  -1 -0.8 0  -0.9333333333333333 -0.8 0  -0.8666666666666667 -0.8 0  -0.8 -0.8 0  -0.7333333333333334 -0.8 0  -0.6666666666666667 -0.8 0  -0.6 -0.8 0  -0.5333333333333333 -0.8 0  -0.4666666666666667 -0.8 0  -0.4 -0.8 0  -0.3333333333333334 -0.8 0  -0.2666666666666667 -0.8 0  -0.2 -0.8 0  -0.1333333333333333 -0.8 0  -0.06666666666666665 -0.8 0  0 -0.8 0  0.06666666666666665 -0.8 0  0.1333333333333333 -0.8 0  0.2 -0.8 0  0.2666666666666666 -0.8 0  0.3333333333333333 -0.8 0  0.3999999999999999 -0.8 0  0.4666666666666666 -0.8 0  0.5333333333333334 -0.8 0  0.6000000000000001 -0.8 0  0.6666666666666667 -0.8 0  0.7333333333333334 -0.8 0  0.8 -0.8 0  0.8666666666666667 -0.8 0  0.9333333333333333 -0.8 0  1 -0.8 0  -1 -0.7333333333333334 0  -0.9333333333333333 -0.7333333333333334 0  -0.8666666666666667 -0.7333333333333334 0  -0.8 -0.7333333333333334 0  -0.7333333333333334 -0.7333333333333334 0  -0.6666666666666667 -0.7333333333333334 0  -0.6 -0.7333333333333334 0  -0.5333333333333333 -0.7333333333333334 0  -0.4666666666666667 -0.7333333333333334 0  -0.4 -0.7333333333333334 0  -0.3333333333333334 -0.7333333333333334 0  -0.2666666666666667 -0.7333333333333334 0  -0.2 -0.7333333333333334 0  -0.1333333333333333 -0.7333333333333334 0  -0.06666666666666665 -0.7333333333333334 0  0 -0.7333333333333334 0  0.06666666666666665 -0.7333333333333334 0  0.1333333333333333 -0.7333333333333334 0  0.2 -0.7333333333333334 0  0.2666666666666666 -0.7333333333333334 0  0.3333333333333333 -0.7333333333333334 0  0.3999999999999999 -0.7333333333333334 0  0.4666666666666666 -0.7333333333333334 0  0.5333333333333334 -0.7333333333333334 0  0.6000000000000001 -0.7333333333333334 0  0.6666666666666667 -0.7333333333333334 0  0.7333333333333334 -0.7333333333333334 0  0.8 -0.7333333333333334 0  0.8666666666666667 -0.7333333333333334 0  0.9333333333333333 -0.7333333333333334 0  1 -0.7333333333333334 0  -1 -0.6666666666666667 0  -0.9333333333333333 -0.6666666666666667 0  -0.8666666666666667 -0.6666666666666667 0  -0.8 -0.6666666666666667 0  -0.7333333333333334 -0.6666666666666667 0  -0.6666666666666667 -0.6666666666666667 0  -0.6 -0.6666666666666667 0  -0.5333333333333333 -0.6666666666666667 0  -0.4666666666666667 -0.6666666666666667 0  -0.4 -0.6666666666666667 0  -0.3333333333333334 -0.6666666666666667 0  -0.2666666666666667 -0.6666666666666667 0  -0.2 -0.6666666666666667 0  -0.1333333333333333 -0.6666666666666667 0  -0.06666666666666665 -0.6666666666666667 0  0 -0.6666666666666667 0  0.06666666666666665 -0.6666666666666667 0  0.1333333333333333 -0.6666666666666667 0  0.2 -0.6666666666666667 0  0.2666666666666666 -0.6666666666666667 0  0.3333333333333333 -0.6666666666666667 0  0.3999999999999999 -0.6666666666666667 0  0.4666666666666666 -0.6666666666666667 0  0.5333333333333334 -0.6666666666666667 0  0.6000000000000001 -0.6666666666666667 0  0.6666666666666667 -0.6666666666666667 0  0.7333333333333334 -0.6666666666666667 0  0.8 -0.6666666666666667 0  0.8666666666666667 -0.6666666666666667 0  0.9333333333333333 -0.6666666666666667 0  1 -0.6666666666666667 0  -1 -0.6 0  -0.9333333333333333 -0.6 0  -0.8666666666666667 -0.6 0  -0.8 -0.6 0  -0.7333333333333334 -0.6 0  -0.6666666666666667 -0.6 0  -0.6 -0.6 0  -0.5333333333333333 -0.6 0  -0.4666666666666667 -0.6 0  -0.4 -0.6 0  -0.3333333333333334 -0.6 0  -0.2666666666666667 -0.6 0  -0.2 -0.6 0  -0.1333333333333333 -0.6 0  -0.06666666666666665 -0.6 0  0 -0.6 0  0.06666666666666665 -0.6 0  0.1333333333333333 -0.6 0  0.2 -0.6 0  0.2666666666666666 -0.6 0  0.3333333333333333 -0.6 0  0.3999999999999999 -0.6 0  0.4666666666666666 -0.6 0  0.5333333333333334 -0.6 0  0.6000000000000001 -0.6 0  0.6666666666666667 -0.6 0  0.7333333333333334 -0.6 0  0.8 -0.6 0  0.8666666666666667 -0.6 0  0.9333333333333333 -0.6 0  1 -0.6 0  -1 -0.5333333333333333 0  -0.9333333333333333 -0.5333333333333333 0  -0.8666666666666667 -0.5333333333333333 0  -0.8 -0.5333333333333333 0  -0.7333333333333334 -0.5333333333333333 0  -0.6666666666666667 -0.5333333333333333 0  -0.6 -0.5333333333333333 0  -0.5333333333333333 -0.5333333333333333 0  -0.4666666666666667 -0.5333333333333333 0  -0.4 -0.5333333333333333 0  -0.3333333333333334 -0.5333333333333333 0  -0.2666666666666667 -0.5333333333333333 0  -0.2 -0.5333333333333333 0  -0.1333333333333333 -0.5333333333333333 0  -0.06666666666666665 -0.5333333333333333 0  0 -0.5333333333333333 0  0.06666666666666665 -0.5333333333333333 0  0.1333333333333333 -0.5333333333333333 0  0.2 -0.5333333333333333 0  0.2666666666666666 -0.5333333333333333 0  0.3333333333333333 -0.5333333333333333 0  0.3999999999999999 -0.5333333333333333 0  0.4666666666666666 -0.5333333333333333 0  0.5333333333333334 -0.5333333333333333 0  0.6000000000000001 -0.5333333333333333 0  0.6666666666666667 -0.5333333333333333 0  0.7333333333333334 -0.5333333333333333 0  0.8 -0.5333333333333333 0  0.8666666666666667 -0.5333333333333333 0  0.9333333333333333 -0.5333333333333333 0  1 -0.5333333333333333 0  -1 -0.4666666666666667 0  -0.9333333333333333 -0.4666666666666667 0  -0.8666666666666667 -0.4666666666666667 0  -0.8 -0.4666666666666667 0  -0.7333333333333334 -0.4666666666666667 0  -0.6666666666666667 -0.4666666666666667 0  -0.6 -0.4666666666666667 0  -0.5333333333333333 -0.4666666666666667 0  -0.4666666666666667 -0.4666666666666667 0  -0.4 -0.4666666666666667 0  -0.3333333333333334 -0.4666666666666667 0  -0.2666666666666667 -0.4666666666666667 0  -0.2 -0.4666666666666667 0  -0.1333333333333333 -0.4666666666666667 0  -0.06666666666666665 -0.4666666666666667 0  0 -0.4666666666666667 0  0.06666666666666665 -0.4666666666666667 0  0.1333333333333333 -0.4666666666666667 0  0.2 -0.4666666666666667 0  0.2666666666666666 -0.4666666666666667 0  0.3333333333333333 -0.4666666666666667 0  0.3999999999999999 -0.4666666666666667 0  0.4666666666666666 -0.4666666666666667 0  0.5333333333333334 -0.4666666666666667 0  0.6000000000000001 -0.4666666666666667 0  0.6666666666666667 -0.4666666666666667 0  0.7333333333333334 -0.4666666666666667 0  0.8 -0.4666666666666667 0  0.8666666666666667 -0.4666666666666667 0  0.9333333333333333 -0.4666666666666667 0  1 -0.4666666666666667 0  -1 -0.4 0  -0.9333333333333333 -0.4 0  -0.8666666666666667 -0.4 0  -0.8 -0.4 0  -0.7333333333333334 -0.4 0  -0.6666666666666667 -0.4 0  -0.6 -0.4 0  -0.5333333333333333 -0.4 0  -0.4666666666666667 -0.4 0  -0.4 -0.4 0  -0.3333333333333334 -0.4 0  -0.2666666666666667 -0.4 0  -0.2 -0.4 0  -0.1333333333333333 -0.4 0  -0.06666666666666665 -0.4 0  0 -0.4 0  0.06666666666666665 -0.4 0  0.1333333333333333 -0.4 0  0.2 -0.4 0  0.2666666666666666 -0.4 0  0.3333333333333333 -0.4 0  0.3999999999999999 -0.4 0  0.4666666666666666 -0.4 0  0.5333333333333334 -0.4 0  0.6000000000000001 -0.4 0  0.6666666666666667 -0.4 0  0.7333333333333334 -0.4 0 
[...]
<PointData  Scalars="f_24"> 
<DataArray  type="Float64"  Name="f_24"  format="ascii">0.0000000000000000e+00  0.0000000000000000e+00  0.0000000000000000e+00  0.0000000000000000e+00  0.0000000000000000e+00  0.0000000000000000e+00  0.0000000000000000e+00  0.0000000000000000e+00  0.0000000000000000e+00  0.0000000000000000e+00  0.0000000000000000e+00  0.0000000000000000e+00  0.0000000000000000e+00  0.0000000000000000e+00  0.0000000000000000e+00  0.0000000000000000e+00  0.0000000000000000e+00  0.0000000000000000e+00  0.0000000000000000e+00  0.0000000000000000e+00  0.0000000000000000e+00  0.0000000000000000e+00  0.0000000000000000e+00  0.0000000000000000e+00  0.0000000000000000e+00  0.0000000000000000e+00  0.0000000000000000e+00  0.0000000000000000e+00  0.0000000000000000e+00  0.0000000000000000e+00  1.4622898964339651e+01  0.0000000000000000e+00  1.3904320795839986e-06  8.2401379123895011e-05  4.3430822003838368e-04  1.3639165693145991e-03  3.2701840382720958e-03  6.6318321764869759e-03  1.2006354247135601e-02  2.0039008080003994e-02  3.1481236344384371e-02  4.7218806199512672e-02  6.8310777639475601e-02  9.6041325189106741e-02  1.3198756139709530e-01  1.7810796501680567e-01  2.3685796674812326e-01  3.1134195083351462e-01  4.0551483179629666e-01  5.2445224532149071e-01  6.7471770078166038e-01  8.6487054129981622e-01  1.1061855886027450e+00  1.4137044052231660e+00  1.8078300133144782e+00  2.3168560941670204e+00  2.9811825953625215e+00  3.8607682457922445e+00  5.0492456012510170e+00  6.7031299798020720e+00  9.1115292297696069e+00  1.2768516793082854e+01  0.0000000000000000e+00  6.3788459019854570e-06  1.2921002718423421e-04  6.0948315580536933e-04  1.7664037531055915e-03  3.9039394655141619e-03  7.2550901811076034e-03  1.1959806785266475e-02  1.8066221475518684e-02  2.5545358842506534e-02  3.4312168689137543e-02  4.4248776788870847e-02  5.5228706961288419e-02  6.7143407818187117e-02  7.9934975976481679e-02  9.3642021754372015e-02  1.0846997473635814e-01  1.2490399467083897e-01  1.4389398471249118e-01  1.6716028272172670e-01  1.9770126369841040e-01  2.4064122367923216e-01  3.0465993794172230e-01  4.0443889826114660e-01  5.6493903516370503e-01  8.2912624494145581e-01  1.2725433097914971e+00  2.0327168241944333e+00  3.3751311623663702e+00  5.8653958951854737e+00  1.1096361217068090e+01  0.0000000000000000e+00  9.0945995943060628e-06  1.3026798025874724e-04  5.5152787365259949e-04  1.4395400215328770e-03  2.8262030216424420e-03  4.5870399351542086e-03  6.4806836102810706e-03  8.2115928173283632e-03  9.4888101019413289e-03  1.0067905715145061e-02  9.7738014092154310e-03  8.5079022736187157e-03  6.2449345491314995e-03  3.0247496844450382e-03  -1.0564137687728886e-03  -5.8509331795899532e-03  -1.1155258315015787e-02  -1.6684874808632975e-02  -2.2005404031586101e-02  -2.6368954668106903e-02  -2.8345713229674548e-02  -2.5015050994968587e-02  -1.0214858024453839e-02  2.9220934850065213e-02  1.2152572191823646e-01  3.2749582890360979e-01  7.7943811911803951e-01  1.7737591555160728e+00  4.0297202636363121e+00  9.5940840105032450e+00  0.0000000000000000e+00  8.9352808003509279e-06  1.0382997281747398e-04  3.9343409372162618e-04  9.0506392140991116e-04  1.5207332862643931e-03  2.0348178152316734e-03  2.2521795806149107e-03  2.0626254723314238e-03  1.4681279946770758e-03  5.6965359777066591e-04  -4.6803806762140928e-04  -1.4564760252554240e-03  -2.2177526600829188e-03  -2.6088627350168295e-03  -2.5365330178451465e-03  -1.9653761878471541e-03  -9.2311946054564971e-04  4.9333742865428757e-04  2.1085271055424197e-03  3.6586790128032803e-03  4.8051480994454141e-03  5.2624132491895402e-03  5.3388969643643662e-03  7.7596316959426060e-03  2.3172464972509674e-02  8.5472858967120244e-02  2.9309236945508388e-01  9.2002184971529166e-01  2.7365354556647841e+00  8.2497702186766375e+00  0.0000000000000000e+00  6.8288556842382819e-06  6.9535377233663460e-05  2.3599635663612426e-04  4.6878836621363828e-04  6.4322731624444850e-04  6.4326087038158656e-04  4.3981858734771704e-04  1.0076698247811638e-04  -2.5221123335626580e-04  -5.0091961669747917e-04  -5.7274691704371750e-04  -4.5706939337456946e-04  -1.9960358245625629e-04  1.1593748908349713e-04  3.8995084340300463e-04  5.2688910861434582e-04  4.5014590489794265e-04  1.1068388916793081e-04  -5.1217437767731174e-04  -1.4228816857776490e-03  -2.6478569511039231e-03  -4.3209843797059515e-03  -6.8062007824275491e-03  -1.0562554810443487e-02  -1.4285042660673685e-02  -5.5388428623978532e-03  7.3855104604848107e-02  4.4277231674052031e-01  1.8558245243671527e+00  7.0519381579570091e+00  0.0000000000000000e+00  3.9979230672099941e-06  3.9390739220797266e-05  1.2078771450845083e-04  2.0206025227493242e-04  2.0780074061704250e-04  1.1339757502144730e-04  -3.2902516128809204e-05  -1.5179170672913040e-04  -1.8751836305745651e-04  -1.3484672610355027e-04  -3.1699005283965224e-05  6.7275612020258429e-05  1.1772873433783191e-04  1.0218442410099587e-04  3.3841938188913456e-05  -4.9283024265276470e-05  -9.5089172983097150e-05  -4.8786231681534224e-05  1.3791772047948501e-04  5.0115240345858343e-04  1.0601620768028314e-03  1.7934631450634976e-03  2.5231853965827773e-03  2.5379466408836696e-03  1.9804143128560555e-04  -4.4851915602732439e-03  1.2764861040229903e-02  2.0300908763276290e-01  1.2444633973917949e+00  5.9895394157935220e+00  0.0000000000000000e+00  1.3564545599648625e-06  1.7774012344805031e-05  5.0733020876567914e-05  6.7942681752271886e-05  3.8521482673901823e-05  -2.2420189040167653e-05  -6.9498437890739827e-05  -7.1811822863051265e-05  -3.5152619012515344e-05  1.0111874655477950e-05  3.5083426207922460e-05  2.9930040143106727e-05  5.0202376176617439e-06  -1.9605606447835779e-05  -2.7436339392636366e-05  -1.4706851175218034e-05  6.7434717827486630e-06  1.2135979620883593e-05  -3.0172814904819390e-05  -1.5081661149051641e-04  -3.6880663170618807e-04  -6.7117558029821224e-04  -9.9348919875098048e-04  -1.3245765941703952e-03  -2.5671508834988694e-03  -7.6775892614061800e-03  -1.3630717921021414e-02  6.9146934481089647e-02  8.0862104844118887e-01  5.0519588507157671e+00  0.0000000000000000e+00  -6.3544809248786605e-07  4.4716565742682156e-06  1.4019415893372161e-05  1.1444953632085595e-05  -1.0403123438090953e-05  -3.2520124380124541e-05  -3.3803365035206409e-05  -1.4978308935329175e-05  6.0182172689964748e-06  1.3866352248343011e-05  7.5819225787334286e-06  -2.9861186998603930e-06  -7.8003022108332118e-06  -4.1279609452409447e-06  3.2799653291140677e-06  7.3389755199511445e-06  4.8475681832111529e-06  4.7073336991682346e-07  7.2134989493151538e-06  4.3531048862560984e-05  1.2772614757689988e-04  2.7129303579417338e-04  5.0215824663845602e-04  9.1959769651859863e-04  1.5706580613987203e-03  8.1194623278791299e-05  -8.9022480205404875e-03  1.2965219825858375e-02  5.1578742462032423e-01  4.2290145923337663e+00  0.0000000000000000e+00  -1.8764776674145870e-06  -2.5403543043921238e-06  -2.3830635857479424e-06  -7.4337192079877306e-06  -1.6713807803016970e-05  -1.9098785418329440e-05  -1.0293300944252150e-05  1.2813387051056083e-06  6.0034609574586318e-06  3.0649228849644428e-06  -1.5063912852226233e-06  -2.6660056027718378e-06  -5.1145353681954822e-07  1.6212693448063468e-06  1.3096260980426474e-06  -8.3151298812652650e-07  -2.3419391942815174e-06  -2.0265103628453098e-06  -2.8054106531688059e-06  -1.2723008178925399e-05  -4.4065124528288539e-05  -1.1182795544042429e-04  -2.4748689727568631e-04  -4.1761140964841016e-04  -4.2426762266288418e-04  -4.7184701938610227e-04  -7.8174632126850416e-03  -1.4290262466043877e-02  3.0548674824934086e-01  3.5109580413379495e+00  0.0000000000000000e+00  -2.4682096224197179e-06  -5.4784026743970138e-06  -8.0359476477177200e-06  -1.0918666831520926e-05  -1.2322799196446569e-05  -8.5007837365087478e-06  -1.5486209526036097e-06  2.6052983842515065e-06  1.9695682857792349e-06  -3.4605887781246756e-07  -1.0951094573130094e-06  -1.9295034844584088e-07  5.8195954762009302e-07  3.0359245301436339e-07  -3.4200157341553923e-07  -3.3344974428094774e-07  3.6980976091998708e-07  9.7111508969686661e-07  1.3653361863201307e-06  3.8891522754317451e-06  1.4853690888767429e-05  4.3651634380089623e-05  1.0678268571287129e-04  1.5449813719580757e-04  3.8112407782643886e-04  1.0521672806600615e-03  -1.4379132076217101e-03  -1.9185603924140014e-02  1.7158721323356205e-01  2.8884738694991916e+00  0.0000000000000000e+00  -2.5879027719663767e-06  -6.0974451097691859e-06  -8.7244143266892938e-06  -9.3575573206784939e-06  -7.4275872508399703e-06  -3.1704194198007888e-06  5.4967829472085536e-07  1.3670655658272555e-06  2.6583658403100109e-07  -4.7626148563155114e-07  -2.1069276428535945e-07  1.9482779314964509e-07  1.3228505848247507e-07  -1.0714028658731839e-07  -9.3806955130108982e-08  8.2307666716339288e-08  5.9625028286773607e-08  -2.2309022931365535e-07  -5.5433311327633601e-07  -1.2381200172799208e-06  -5.0013007190302904e-06  -1.4903065016663529e-05  -4.2396312995575400e-05  -7.4666840083376066e-05  -2.7110007975343376e-04  1.8093028971351622e-04  -4.9945230390149094e-04  -1.7938654933729908e-02  7.7969390952565623e-02  2.3526800196687745e+00  0.0000000000000000e+00  -2.4122856260614615e-06  -5.5750007266864248e-06  -7.5132952194184311e-06  -6.8496669395355818e-06  -4.1395001583859716e-06  -1.0009509317919337e-06  6.5643176740400614e-07  5.1453498125461679e-07  -9.5991377424117609e-08  -1.9015919147859946e-07  2.6093616608442796e-08  7.9023252754851682e-08  -1.8248660118130759e-08  -3.9313215479809650e-08  1.9365073392107435e-08  2.3276710570194910e-08  -2.1448737862721064e-08  1.0703286564951342e-08  1.6071089549018086e-07  3.6012850615065716e-07  1.8387244094637476e-06  3.5169861569205898e-06  1.9562250085011443e-05  3.1991757281233251e-05  7.7360092508924543e-05  1.1800512077032998e-04  1.5538133497088830e-03  -1.2643641994009245e-02  2.3581745937927983e-02  1.8951277057784186e+00  0.0000000000000000e+00  -2.0835453666610089e-06  -4.6126278052381116e-06  -5.8424626390265571e-06  -4.7013425884841811e-06  -2.2697128586353885e-06  -2.5048775346611685e-07  4.1811657327980214e-07  1.6223799774825857e-07  -9.1432052396800616e-08  -5.0068758049330523e-08  3.2268584297155062e-08  1.3197548850182001e-08  -1.5871776570858956e-08  -1.0209496386790161e-09  8.8317881229078054e-09  -4.0875475935179047e-09  -4.6826947394175045e-09  4.8948624214727047e-09  -3.6367670334605218e-08  -4.6648923767561360e-08  -8.5329095438173949e-07  3.6075106618222072e-07  -1.1854514019726647e-05  3.0323751046143308e-06  -7.1368425259132377e-05  -1.1459262875494063e-04  9.4493696954961069e-04  -7.3986955655570130e-03  -1.1283330162323364e-02  1.5078014128402617e+00  0.0000000000000000e+00  -1.7013936584381329e-06  -3.5841568686281687e-06  -4.2948915430732638e-06  -3.1493166635404168e-06  -1.2811030022383413e-06  -3.6803477986880885e-08  2.2927974138318395e-07  4.8540763848997149e-08  -4.7393563712273377e-08  -1.0017726874312080e-08  1.3666007308526208e-08  -2.5261712630792580e-10  -4.3111713930358686e-09  2.0268073415354082e-09  6.8548372102948275e-10  -1.5678571344948755e-09  1.2522614891335817e-09  -1.7295215897023760e-09  1.9471204669503926e-08  -7.1153362252597948e-08  5.7331268759411870e-07  -1.3221246379335816e-06  7.2538127099629995e-06  -1.0864341554476137e-05  6.6002813030849116e-05  -1.6390222819979579e-04  9.9394609946362213e-04  -3.0165593486431060e-03  -2.7552415684282346e-02  1.1831188969468684e+00  0.0000000000000000e+00  -1.3278408273710966e-06  -2.6623313664127396e-06  -3.0479346352345820e-06  -2.1010409461662281e-06  -7.6988039580170616e-07  1.7740892745115178e-09  1.2268198128025443e-07  1.8116378389206242e-08  -2.1177007676133023e-08  -2.2807314073080537e-09  4.5618757810798679e-09  -6.8916139574516424e-10  -8.1098251451622379e-10  6.7757970211922097e-10  -4.2579309509650046e-10  6.1132145426059957e-10  -1.8298099615072006e-09  7.7501052616116086e-09  -3.7467277301328371e-08  1.5777381358291969e-07  -6.3300250656747820e-07  1.7839977679251093e-06  -5.3193909445238437e-06  7.8901383149235343e-06  -1.5851973674209643e-05  -4.7325372266369354e-05  2.1173119994134985e-04  1.9168059397610120e-04  -3.5058752679899018e-02  9.1393118527122819e-01  0.0000000000000000e+00  -9.9628866944085098e-07  -1.9077249960195453e-06  -2.1094314489196120e-06  -1.4087167632263049e-06  -5.0041607318021110e-07  -6.6009704394172898e-09  6.7111339928413977e-08  1.1278747021799544e-08  -9.0533515664636194e-09  -1.4079076962402613e-09  1.4543190624980519e-09  -1.0440632347264036e-10  -2.3616923736595940e-10  5.0319806143434382e-10  -1.5470914405581448e-09  4.8187577820185937e-09  -1.3753899217714279e-08  3.3905887087244433e-08  -6.6419041717733061e-08  8.3013348670906682e-08  4.0559273712195808e-08  -5.4807866897805635e-07  2.1355022155278746e-06  -4.4959417393128706e-06  1.2049704464322305e-05  -8.1374583574036426e-06  -6.3481442650816538e-05  2.0200417362161781e-03  -3.4955046269845913e-02  6.9352257606675560e-01  0.0000000000000000e+00  -7.2064540966446834e-07  -1.3243882106011435e-06  -1.4296953778946929e-06  -9.5044301897319080e-07  -3.4950789248763500e-07  -2.2222170643615556e-08  3.6906223273054188e-08  9.6749426080622305e-09  -3.4010873055382032e-09  -1.2788152384939101e-09  4.0914803951673920e-10  2.4694938325584727e-11  -9.3396409037714444e-11  7.4522314290592144e-10  -3.1959560335062438e-09  1.0453686685842466e-08  -2.9779125209452645e-08  7.9852021589976543e-08  -2.1152853864702380e-07  5.5836464581371913e-07  -1.4387779480134275e-06  3.5225157570859840e-06  -8.2095366104626608e-06  1.8185646013686074e-05  -4.2504995074752562e-05  1.1030193989711854e-04  -4.4808265268489071e-04  2.9546164357038126e-03  -3.1735965024564078e-02  5.1561063866728984e-01  0.0000000000000000e+00  -5.0275103199586331e-07  -8.9178093353193145e-07  -9.4916411811009006e-07  -6.4235421466270875e-07  -2.5626269755432476e-07  -3.4600775580891858e-08  1.8446698625703873e-08  8.4351978492220153e-09  -4.4571282421874014e-10  -9.1085404733846652e-10  1.6405886369556725e-12  -9.3211545230693875e-11  1.8240357555024162e-10  2.7903283428903628e-10  -2.5041217428554772e-09  9.8071574852210240e-09  -2.9621845365670439e-08  7.6227203368281872e-08  -1.7340609485286247e-07  3.6160620806596007e-07  -7.3679672425001401e-07  1.6112054307689593e-06  -4.0316186276620871e-06  1.1509252284518389e-05  -3.5685895036732461e-05  1.2545811314863074e-04  -5.2623929913721843e-04  3.0644897413949937e-03  -2.6351507525043002e-02  3.7434621348709513e-01  0.0000000000000000e+00  -3.3776478968777528e-07  -5.8165841166052761e-07  -6.1555488182670797e-07  -4.3116715977109542e-07  -1.9157494444732276e-07  -4.1613537587180649e-08  5.7376515516198765e-09  6.4013995724297738e-09  1.1236279519546203e-09  -3.1068253569727415e-10  -1.6402943917566674e-10  -1.3236812685643318e-10  3.6225122806852269e-10  -6.5222356867762733e-10  4.1260020521817823e-10  2.6075974772271941e-09  -1.5557529363567176e-08  5.9335556347922463e-08  -1.8986848160830443e-07  5.4288546391152002e-07  -1.4224760540925742e-06  3.4932679647042820e-06  -8.2995829411270507e-06  1.9940823001922416e-05  -5.1421891857327832e-05  1.5180841778206556e-04  -5.5866785087900354e-04  2.7771552924993337e-03  -2.0642484341647185e-02  2.6431341202086039e-01  0.0000000000000000e+00  -2.1775905710873582e-07  -3.6616077467952868e-07  -3.8789515846010569e-07  -2.8420958081043963e-07  -1.4203444810988177e-07  -4.3225324793917406e-08  -3.3496340142212818e-09  3.4963335046195551e-09  1.6246537353654109e-09  2.6391840588759466e-10  -1.4002848528253368e-10  3.5438490403695394e-11  7.7727524209557489e-11  -6.2234087535989689e-10  1.6609552707881307e-09  -2.8243654949208179e-09  2.2944337922377378e-09  4.9807141718274815e-09  -3.2774132844408563e-08  1.2352991651155087e-07  -4.1369185872812833e-07  1.3230442658561926e-06  -4.0860025461671739e-06  1.2359291630397648e-05  -3.7828221013518574e-05  1.2373053519462468e-04  -4.6517362310919850e-04  2.2200823075220963e-03  -1.5137417677374461e-02  1.8052961684369948e-01  0.0000000000000000e+00  -1.3394172603928203e-07  -2.2111332774490017e-07  -2.3565156777455553e-07  -1.8154456210643533e-07  -1.0193127999363406e-07  -4.0064384379683297e-08  -9.2288477536312664e-09  2.0224024786077147e-10  1.1499244274226779e-09  5.0310322679622492e-10  5.9471064112880294e-11  1.6243345013342430e-10  -2.7786109088475260e-10  2.3192518390648028e-10  4.0043707219724564e-10  -2.0823897621082390e-09  3.8216590950336663e-09  1.2363222908269420e-09  -3.6012665197333307e-08  1.6070190110383448e-07  -5.2031720601290684e-07  1.4712248677504656e-06  -3.9623450764154669e-06  1.0769679142369354e-05  -3.0870571906862695e-05  9.7248480190145691e-05  -3.5506042679994703e-04  1.6222035514948492e-03  -1.0435972876259447e-02  1.1844548161115125e-01  0.0000000000000000e+00  -7.7917734646545077e-08  -1.2691159864748910e-07  -1.3653016403988311e-07  -1.1066741518774860e-07  -6.9260025019004492e-08  -3.3303360999833124e-08  -1.1845601881162514e-08  -2.6512755259716909e-09  -2.0821173416410815e-11  2.9208453801087599e-10  1.9812084042419813e-10  7.5458056180397422e-11  -1.3909570787396923e-10  4.8397686033504329e-10  -8.0325520286031249e-10  3.0451669222222220e-10  3.4910387312464945e-09  -1.5567356862977777e-08  4.2107011695882566e-08  -8.0591322581463793e-08  8.6720190651563947e-08  1.1888328939315059e-07  -1.1172909110208578e-06  4.7300223146467011e-06  -1.6989469909293768e-05  6.0204394904788613e-05  -2.3147717990915675e-04  1.0644978862457590e-03  -6.6787279599196635e-03  7.3944931059179320e-02  0.0000000000000000e+00  -4.2320776430559123e-08  -6.8309884132715951e-08  -7.4325093056039017e-08  -6.3213462581378275e-08  -4.3576379175458141e-08  -2.4623347437277016e-08  -1.1450825475037444e-08  -4.2738711086879882e-09  -1.2812983374615349e-09  -2.0934127471753001e-10  1.6062929150085077e-11  -2.5806531266975945e-11  1.1997587394084422e-10  1.2719216480238920e-12  -4.2174372713143830e-10  1.5787439459865030e-09  -4.0254186691648681e-09  8.5532909649244126e-09  -1.6041800511102547e-08  2.8599684546312885e-08  -5.8482905823326217e-08  1.6748840443906629e-07  -6.0843959171457988e-07  2.3115604359344872e-06  -8.6534013826538698e-06  3.2696841349961698e-05  -1.3223411791271977e-04  6.2368033623370900e-04  -3.9171530642525881e-03  4.3345161004172190e-02  0.0000000000000000e+00  -2.1056560829677712e-08  -3.3800530706879013e-08  -3.7228577876918516e-08  -3.3055452169930822e-08  -2.4749561450889490e-08  -1.5908936750945427e-08  -8.9341464101759142e-09  -4.3578187450715332e-09  -1.9690258860837273e-09  -6.8743115372994797e-10  -3.5142182988539205e-10  -3.9206005563897179e-11  -4.5681175941598326e-12  -1.7395744001397804e-10  2.9579690649035433e-10  -4.7474781827866687e-10  1.1518846758738216e-09  -4.0050780902813642e-09  1.2786196572692847e-08  -3.3996289267516296e-08  7.5280296057365649e-08  -1.3386062331077845e-07  1.4361109859947143e-07  2.3969636344903011e-07  -2.5009408122077948e-06  1.2979296397567625e-05  -6.1268933290198728e-05  3.1354888242265592e-04  -2.0484206037730619e-03  2.3396638342943421e-02  0.0000000000000000e+00  -9.3218826103747835e-09  -1.4915203375601961e-08  -1.6630005319555659e-08  -1.5320213019113364e-08  -1.2275542694456590e-08  -8.7317539221936522e-09  -5.6354462216114853e-09  -3.2725913164170509e-09  -1.8404196559119368e-09  -8.4683989249130223e-10  -5.5305230991132481e-10  -7.0766864748163697e-11  -2.5484583292170143e-10  4.5306267390592579e-11  -2.0006218377856251e-11  1.6441221308050994e-10  -1.5452533046474117e-09  5.6439968344958119e-09  -1.4074384393394562e-08  2.6335345749312643e-08  -3.6283828987482015e-08  2.8513332288478824e-08  1.5774804793767837e-08  -6.0713649653416099e-08  -2.8946483239802804e-07  3.2919814030729316e-06  -2.1074040828943886e-05  1.2711271491809190e-04  -9.1334720599989911e-04  1.1283101052731202e-02  0.0000000000000000e+00  -3.5055901425319629e-09  -5.5891845674239373e-09  -6.3029432403566138e-09  -5.9869644293536062e-09  -5.0610948766869561e-09  -3.8923289617672257e-09  -2.7848648575913662e-09  -1.8254