<?xml version="1.0"?>
<VTKFile type="UnstructuredGrid"  version="0.1"  >
<UnstructuredGrid>
<Piece  NumberOfPoints="961" NumberOfCells="1800">
<Points>
<DataArray  type="Float64"  NumberOfComponents="3"  format="ascii">-1 -1 0  -0.9333333333333333 -1 0  -0.8666666666666667 -1 0  -0.8 -1 0  -0.7333333333333334 -1 0  -0.6666666666666667 -1 0  -0.6 -1 0  -0.5333333333333333 -1 0  -0.4666666666666667 -1 0  -0.4 -1 0  -0.3333333333333334 -1 0  -0.2666666666666667 -1 0  -0.2 -1 0  -0.1333333333333333 -1 0  -0.06666666666666665 -1 0  0 -1 0  0.06666666666666665 -1 0  0.1333333333333333 -1 0  0.2 -1 0  0.2666666666666666 -1 0  0.3333333333333333 -1 0  0.3999999999999999 -1 0  0.4666666666666666 -1 0  0.5333333333333334 -1 0  0.6000000000000001 -1 0  0.6666666666666667 -1 0  0.7333333333333334 -1 0  0.8 -1 0  0.8666666666666667 -1 0  0.9333333333333333 -1 0  1 -1 0  -1 -0.9333333333333333 0  -0.9333333333333333 -0.9333333333333333 0  -0.8666666666666667 -0.9333333333333333 0  -0.8 -0.9333333333333333 0  -0.7333333333333334 -0.9333333333333333 0  -0.6666666666666667 -0.9333333333333333 0  -0.6 -0.9333333333333333 0  -0.5333333333333333 -0.9333333333333333 0  -0.4666666666666667 -0.9333333333333333 0  -0.4 -0.9333333333333333 0  -0.3333333333333334 -0.9333333333333333 0  -0.2666666666666667 -0.9333333333333333 0  -0.2 -0.9333333333333333 0  -0.1333333333333333 -0.9333333333333333 0  -0.06666666666666665 -0.9333333333333333 0  0 -0.9333333333333333 0  0.06666666666666665 -0.9333333333333333 0  0.1333333333333333 -0.9333333333333333 0  0.2 -0.9333333333333333 0  0.2666666666666666 -0.9333333333333333 0  0.3333333333333333 -0.9333333333333333 0  0.3999999999999999 -0.9333333333333333 0  0.4666666666666666 -0.9333333333333333 0  0.5333333333333334 -0.9333333333333333 0  0.6000000000000001 -0.9333333333333333 0  0.6666666666666667 -0.9333333333333333 0  0.7333333333333334 -0.9333333333333333 0  0.8 -0.9333333333333333 0  0.8666666666666667 -0.9333333333333333 0  0.9333333333333333 -0.9333333333333333 0  1 -0.9333333333333333 0  -1 -0.8666666666666667 0  -0.9333333333333333 -0.8666666666666667 0  -0.8666666666666667 -0.8666666666666667 0  -0.8 -0.8666666666666667 0  -0.7333333333333334 -0.8666666666666667 0  -0.6666666666666667 -0.8666666666666667 0  -0.6 -0.8666666666666667 0  -0.5333333333333333 -0.8666666666666667 0  -0.4666666666666667 -0.8666666666666667 0  -0.4 -0.8666666666666667 0  -0.3333333333333334 -0.8666666666666667 0  -0.2666666666666667 -0.8666666666666667 0  -0.2 -0.8666666666666667 0  -0.1333333333333333 -0.8666666666666667 0  -0.06666666666666665 -0.8666666666666667 0  0 -0.8666666666666667 0  0.06666666666666665 -0.8666666666666667 0  0.1333333333333333 -0.8666666666666667 0  0.2 -0.8666666666666667 0  0.2666666666666666 -0.8666666666666667 0  0.3333333333333333 -0.8666666666666667 0  0.3999999999999999 -0.8666666666666667 0  0.4666666666666666 -0.8666666666666667 0  0.5333333333333334 -0.8666666666666667 0  0.6000000000000001 -0.8666666666666667 0  0.6666666666666667 -0.8666666666666667 0  0.7333333333333334 -0.8666666666666667 0  0.8 -0.8666666666666667 0  0.8666666666666667 -0.8666666666666667 0  0.9333333333333333 -0.8666666666666667 0  1 -0.8666666666666667 0  -1 -0.8 0  -0.9333333333333333 -0.8 0  -0.8666666666666667 -0.8 0  -0.8 -0.8 0  -0.7333333333333334 -0.8 0  -0.6666666666666667 -0.8 0  -0.6 -0.8 0  -0.5333333333333333 -0.8 0  -0.4666666666666667 -0.8 0  -0.4 -0.8 0  -0.3333333333333334 -0.8 0  -0.2666666666666667 -0.8 0  -0.2 -0.8 0  -0.1333333333333333 -0.8 0  -0.06666666666666665 -0.8 0  0 -0.8 0  0.06666666666666665 -0.8 0  0.1333333333333333 -0.8 0  0.2 -0.8 0  0.2666666666666666 -0.8 0  0.3333333333333333 -0.8 0  0.3999999999999999 -0.8 0  0.4666666666666666 -0.8 0  0.5333333333333334 -0.8 0  0.6000000000000001 -0.8 0  0.6666666666666667 -0.8 0  0.7333333333333334 -0.8 0  0.8 -0.8 0  0.8666666666666667 -0.8 0  0.9333333333333333 -0.8 0  1 -0.8 0  -1 -0.7333333333333334 0  -0.9333333333333333 -0.7333333333333334 0  -0.8666666666666667 -0.7333333333333334 0  -0.8 -0.7333333333333334 0  -0.7333333333333334 -0.7333333333333334 0  -0.6666666666666667 -0.7333333333333334 0  -0.6 -0.7333333333333334 0  -0.5333333333333333 -0.7333333333333334 0  -0.4666666666666667 -0.7333333333333334 0  -0.4 -0.7333333333333334 0  -0.3333333333333334 -0.7333333333333334 0  -0.2666666666666667 -0.7333333333333334 0  -0.2 -0.7333333333333334 0  -0.1333333333333333 -0.7333333333333334 0  -0.06666666666666665 -0.7333333333333334 0  0 -0.7333333333333334 0  0.06666666666666665 -0.7333333333333334 0  0.1333333333333333 -0.7333333333333334 0  0.2 -0.7333333333333334 0  0.2666666666666666 -0.7333333333333334 0  0.3333333333333333 -0.7333333333333334 0  0.3999999999999999 -0.7333333333333334 0  0.4666666666666666 -0.7333333333333334 0  0.5333333333333334 -0.7333333333333334 0  0.6000000000000001 -0.7333333333333334 0  0.6666666666666667 -0.7333333333333334 0  0.7333333333333334 -0.7333333333333334 0  0.8 -0.7333333333333334 0  0.8666666666666667 -0.7333333333333334 0  0.9333333333333333 -0.7333333333333334 0  1 -0.7333333333333334 0  -1 -0.6666666666666667 0  -0.9333333333333333 -0.6666666666666667 0  -0.8666666666666667 -0.6666666666666667 0  -0.8 -0.6666666666666667 0  -0.7333333333333334 -0.6666666666666667 0  -0.6666666666666667 -0.6666666666666667 0  -0.6 -0.6666666666666667 0  -0.5333333333333333 -0.6666666666666667 0  -0.4666666666666667 -0.6666666666666667 0  -0.4 -0.6666666666666667 0  -0.3333333333333334 -0.6666666666666667 0  -0.2666666666666667 -0.6666666666666667 0  -0.2 -0.6666666666666667 0  -0.1333333333333333 -0.6666666666666667 0  -0.06666666666666665 -0.6666666666666667 0  0 -0.6666666666666667 0  0.06666666666666665 -0.6666666666666667 0  0.1333333333333333 -0.6666666666666667 0  0.2 -0.6666666666666667 0  0.2666666666666666 -0.6666666666666667 0  0.3333333333333333 -0.6666666666666667 0  0.3999999999999999 -0.6666666666666667 0  0.4666666666666666 -0.6666666666666667 0  0.5333333333333334 -0.6666666666666667 0  0.6000000000000001 -0.6666666666666667 0  0.6666666666666667 -0.6666666666666667 0  0.7333333333333334 -0.6666666666666667 0  0.8 -0.6666666666666667 0  0.8666666666666667 -0.6666666666666667 0  0.9333333333333333 -0.6666666666666667 0  1 -0.6666666666666667 0  -1 -0.6 0  -0.9333333333333333 -0.6 0  -0.8666666666666667 -0.6 0  -0.8 -0.6 0  -0.7333333333333334 -0.6 0  -0.6666666666666667 -0.6 0  -0.6 -0.6 0  -0.5333333333333333 -0.6 0  -0.4666666666666667 -0.6 0  -0.4 -0.6 0  -0.3333333333333334 -0.6 0  -0.2666666666666667 -0.6 0  -0.2 -0.6 0  -0.1333333333333333 -0.6 0  -0.06666666666666665 -0.6 0  0 -0.6 0  0.06666666666666665 -0.6 0  0.1333333333333333 -0.6 0  0.2 -0.6 0  0.2666666666666666 -0.6 0  0.3333333333333333 -0.6 0  0.3999999999999999 -0.6 0  0.4666666666666666 -0.6 0  0.5333333333333334 -0.6 0  0.6000000000000001 -0.6 0  0.6666666666666667 -0.6 0  0.7333333333333334 -0.6 0  0.8 -0.6 0  0.8666666666666667 -0.6 0  0.9333333333333333 -0.6 0  1 -0.6 0  -1 -0.5333333333333333 0  -0.9333333333333333 -0.5333333333333333 0  -0.8666666666666667 -0.5333333333333333 0  -0.8 -0.5333333333333333 0  -0.7333333333333334 -0.5333333333333333 0  -0.6666666666666667 -0.5333333333333333 0  -0.6 -0.5333333333333333 0  -0.5333333333333333 -0.5333333333333333 0  -0.4666666666666667 -0.5333333333333333 0  -0.4 -0.5333333333333333 0  -0.3333333333333334 -0.5333333333333333 0  -0.2666666666666667 -0.5333333333333333 0  -0.2 -0.5333333333333333 0  -0.1333333333333333 -0.5333333333333333 0  -0.06666666666666665 -0.5333333333333333 0  0 -0.5333333333333333 0  0.06666666666666665 -0.5333333333333333 0  0.1333333333333333 -0.5333333333333333 0  0.2 -0.5333333333333333 0  0.2666666666666666 -0.5333333333333333 0  0.3333333333333333 -0.5333333333333333 0  0.3999999999999999 -0.5333333333333333 0  0.4666666666666666 -0.5333333333333333 0  0.5333333333333334 -0.5333333333333333 0  0.6000000000000001 -0.5333333333333333 0  0.6666666666666667 -0.5333333333333333 0  0.7333333333333334 -0.5333333333333333 0  0.8 -0.5333333333333333 0  0.8666666666666667 -0.5333333333333333 0  0.9333333333333333 -0.5333333333333333 0  1 -0.5333333333333333 0  -1 -0.4666666666666667 0  -0.9333333333333333 -0.4666666666666667 0  -0.8666666666666667 -0.4666666666666667 0  -0.8 -0.4666666666666667 0  -0.7333333333333334 -0.4666666666666667 0  -0.6666666666666667 -0.4666666666666667 0  -0.6 -0.4666666666666667 0  -0.5333333333333333 -0.4666666666666667 0  -0.4666666666666667 -0.4666666666666667 0  -0.4 -0.4666666666666667 0  -0.3333333333333334 -0.4666666666666667 0  -0.2666666666666667 -0.4666666666666667 0  -0.2 -0.4666666666666667 0  -0.1333333333333333 -0.4666666666666667 0  -0.06666666666666665 -0.4666666666666667 0  0 -0.4666666666666667 0  0.06666666666666665 -0.4666666666666667 0  0.1333333333333333 -0.4666666666666667 0  0.2 -0.4666666666666667 0  0.2666666666666666 -0.4666666666666667 0  0.3333333333333333 -0.4666666666666667 0  0.3999999999999999 -0.4666666666666667 0  0.4666666666666666 -0.4666666666666667 0  0.5333333333333334 -0.4666666666666667 0  0.6000000000000001 -0.4666666666666667 0  0.6666666666666667 -0.4666666666666667 0  0.7333333333333334 -0.4666666666666667 0  0.8 -0.4666666666666667 0  0.8666666666666667 -0.4666666666666667 0  0.9333333333333333 -0.4666666666666667 0  1 -0.4666666666666667 0  -1 -0.4 0  -0.9333333333333333 -0.4 0  -0.8666666666666667 -0.4 0  -0.8 -0.4 0  -0.7333333333333334 -0.4 0  -0.6666666666666667 -0.4 0  -0.6 -0.4 0  -0.5333333333333333 -0.4 0  -0.4666666666666667 -0.4 0  -0.4 -0.4 0  -0.3333333333333334 -0.4 0  -0.2666666666666667 -0.4 0  -0.2 -0.4 0  -0.1333333333333333 -0.4 0  -0.06666666666666665 -0.4 0  0 -0.4 0  0.06666666666666665 -0.4 0  0.1333333333333333 -0.4 0  0.2 -0.4 0  0.2666666666666666 -0.4 0  0.3333333333333333 -0.4 0  0.3999999999999999 -0.4 0  0.4666666666666666 -0.4 0  0.5333333333333334 -0.4 0  0.6000000000000001 -0.4 0  0.6666666666666667 -0.4 0  0.7333333333333334 -0.4 0 
[...]
<PointData  Scalars="f_24"> 
<DataArray  type="Float64"  Name="f_24"  format="ascii">0.0000000000000000e+00  0.0000000000000000e+00  0.0000000000000000e+00  0.0000000000000000e+00  0.0000000000000000e+00  0.0000000000000000e+00  0.0000000000000000e+00  0.0000000000000000e+00  0.0000000000000000e+00  0.0000000000000000e+00  0.0000000000000000e+00  0.0000000000000000e+00  0.0000000000000000e+00  0.0000000000000000e+00  0.0000000000000000e+00  0.0000000000000000e+00  0.0000000000000000e+00  0.0000000000000000e+00  0.0000000000000000e+00  0.0000000000000000e+00  0.0000000000000000e+00  0.0000000000000000e+00  0.0000000000000000e+00  0.0000000000000000e+00  0.0000000000000000e+00  0.0000000000000000e+00  0.0000000000000000e+00  0.0000000000000000e+00  0.0000000000000000e+00  0.0000000000000000e+00  1.0202050425948380e+01  0.0000000000000000e+00  4.9749717220060281e-02  9.6691451036191575e-02  1.4088445415469575e-01  1.8275843814931972e-01  2.2275685781427976e-01  2.6133776970701167e-01  2.9898845764325416e-01  3.3623804556333969e-01  3.7367126133101963e-01  4.1194299298091719e-01  4.5179590618386595e-01  4.9408405491376789e-01  5.3980578892644238e-01  5.9014998651498263e-01  6.4656088753372043e-01  7.1082883610344905e-01  7.8521763106870890e-01  8.7264442393171093e-01  9.7693631191893138e-01  1.1032007200316314e+00  1.2583676535720272e+00  1.4519972904759406e+00  1.6975089668484611e+00  2.0141058720246976e+00  2.4299093123790505e+00  2.9873333497572463e+00  3.7530747493397927e+00  4.8380990108204394e+00  6.4463996851591023e+00  8.9082918855743163e+00  0.0000000000000000e+00  9.6055375540376450e-02  1.8086504850469737e-01  2.5111875567869563e-01  3.0594288262939012e-01  3.4587560755504815e-01  3.7239894820277974e-01  3.8750159960035374e-01  3.9333797614313321e-01  3.9199357720766359e-01  3.8534539359016862e-01  3.7499990953656964e-01  3.6228651651806237e-01  3.4828715822035078e-01  3.3388861415301258e-01  3.1985022850345202e-01  3.0688687199566567e-01  2.9577455094249272e-01  2.8749586625481383e-01  2.8345731099380866e-01  2.8583502305973796e-01  2.9814876305490162e-01  3.2624135199974164e-01  3.7998378395027288e-01  4.7629934432553533e-01  6.4465617193992986e-01  9.3743919444861179e-01  1.4506184208418027e+00  2.3704764424230915e+00  4.0916987766382062e+00  7.7416685266811456e+00  0.0000000000000000e+00  1.3692416746150535e-01  2.4610700614388187e-01  3.1820023736664577e-01  3.5302764587184399e-01  3.5618739073941053e-01  3.3593813792541183e-01  3.0077388253774850e-01  2.5799728288533713e-01  2.1314072029885364e-01  1.6995436698513888e-01  1.3068816030302119e-01  9.6468458773859206e-02  6.7656265226613679e-02  4.4137578367693268e-02  2.5536270881880072e-02  1.1359926907405048e-02  1.0972078126132078e-03  -5.7110340646089452e-03  -9.3991728906071999e-03  -1.0060124823756289e-02  -7.3045855577171404e-03  2.6982516152911497e-04  1.6254049880002851e-02  4.9009325686655329e-02  1.1729433251469372e-01  2.6251350575333593e-01  5.7626344872459434e-01  1.2644005265990490e+00  2.8314346190578674e+00  6.6935652844647322e+00  0.0000000000000000e+00  1.7128933066837965e-01  2.9102571875577404e-01  3.4470813208821227e-01  3.4009121548423471e-01  2.9634193129185998e-01  2.3408783339895040e-01  1.6955673571065633e-01  1.1276130456959378e-01  6.8203278973758566e-02  3.6567303387634836e-02  1.6410866677536395e-02  5.4253045915002756e-03  1.2083369562302538e-03  1.6494306880271274e-03  5.0638265884864033e-03  1.0187167644948321e-02  1.6105187444453429e-02  2.2161015450734782e-02  2.7861618810045129e-02  3.2795762917371012e-02  3.6582792030962805e-02  3.8913703528108752e-02  3.9886457097590013e-02  4.1237060814902533e-02  5.0132066845010710e-02  8.9920826510487467e-02  2.2873944869071425e-01  6.5840842175058001e-01  1.9136109490262327e+00  5.7556693770965275e+00  0.0000000000000000e+00  1.9879905748064339e-01  3.1763838777771664e-01  3.4114131715771950e-01  2.9407535654732525e-01  2.1490431669268717e-01  1.3536706593162437e-01  7.2856281673243803e-02  3.2067936353797760e-02  1.0155576015074478e-02  1.4872761428796908e-03  5.7673679741917139e-04  3.3128216701171060e-03  7.1302327919691459e-03  1.0710173444487233e-02  1.3573915973416475e-02  1.5732050257961216e-02  1.7432493837819606e-02  1.8995286959084156e-02  2.0705076979229853e-02  2.2732041507779629e-02  2.5056526472745859e-02  2.7379510379334473e-02  2.9032032319160378e-02  2.9094544002826527e-02  2.7772562793461058e-02  3.2924766999781301e-02  8.4746930420335598e-02  3.3453883224838110e-01  1.3121475201610582e+00  4.9199703057235640e+00  0.0000000000000000e+00  2.1965648103007521e-01  3.2969191397057268e-01  3.1953944349924829e-01  2.3779350542938996e-01  1.4180412688493657e-01  6.6930262697087295e-02  2.2867926134426741e-02  3.8148393553555488e-03  -5.3308552701675325e-04  1.3099024675676946e-03  4.3941862954964949e-03  6.7215813531402080e-03  8.0120866592600232e-03  8.7033526055127087e-03  9.3758887270452076e-03  1.0511725536861935e-02  1.2440737570315474e-02  1.5361782604249372e-02  1.9370798051364740e-02  2.4460391939532467e-02  3.0475546218198982e-02  3.7018791508817740e-02  4.3288961427671829e-02  4.7799073885417022e-02  4.8179460737007712e-02  4.3354491320019763e-02  4.9135655450099520e-02  1.7185660789194693e-01  8.8217952340223904e-01  4.1787598544684572e+00  0.0000000000000000e+00  2.3443920527496909e-01  3.3132780532502948e-01  2.8988677356262560e-01  1.8505312795197357e-01  8.7733975578820886e-02  2.8256694477211210e-02  3.6753563335377715e-03  -1.1177758930638250e-03  1.0023689061448102e-03  3.5080821564411517e-03  4.6480248838476146e-03  4.7903383243814253e-03  4.6925089511121020e-03  4.8486551144168452e-03  5.4450315858295883e-03  6.5135907348528336e-03  8.0818564682505669e-03  1.0260094697307310e-02  1.3263442815207777e-02  1.7372094793232293e-02  2.2823192972930909e-02  2.9632448761973417e-02  3.7360875913042643e-02  4.4834086986452477e-02  4.9584706346695269e-02  4.7316068256972085e-02  3.8841211680095841e-02  8.5172993852528564e-02  5.8606970335640873e-01  3.5246320904294075e+00  0.0000000000000000e+00  2.4392612295062147e-01  3.2627221218526947e-01  2.5900624595861393e-01  1.4183969618325909e-01  5.2196619990666188e-02  9.5965132891484457e-03  -1.2549214584591419e-03  -5.8096445189295944e-05  2.3251343370145395e-03  3.0935601945402806e-03  2.8345014423810954e-03  2.4625981265844000e-03  2.3469487468235537e-03  2.4787831041933324e-03  2.7834507546765281e-03  3.2829173447288785e-03  4.1310677917206981e-03  5.6045461106245939e-03  8.0932242233953018e-03  1.2081975906181288e-02  1.8073930834086642e-02  2.6384725417470053e-02  3.6791991422370808e-02  4.8121178982408072e-02  5.7878528114362615e-02  6.1138779820174287e-02  5.0894058148327960e-02  5.3797263765101841e-02  3.8349224625903566e-01  2.9504833636802030e+00  0.0000000000000000e+00  2.4895907609951048e-01  3.1748380844973301e-01  2.3086014932522772e-01  1.0928954887185137e-01  3.0650356207984269e-02  1.8366563107627000e-03  -1.4045714851690819e-03  1.0520926925599475e-03  2.1504101928775587e-03  1.8694573344474549e-03  1.3895445372921458e-03  1.1498736660223731e-03  1.0728694295067329e-03  1.0443637071403328e-03  1.0683317899316000e-03  1.2286900643760366e-03  1.6467928844169926e-03  2.5010026524811477e-03  4.0974252803163604e-03  6.9508237122548428e-03  1.1802195238443676e-02  1.9455236729673184e-02  3.0288504312334714e-02  4.3531831603975689e-02  5.6618848970922404e-02  6.4771396525166072e-02  5.8471717853527214e-02  4.0765735289156016e-02  2.4173987583440393e-01  2.4495123072702056e+00  0.0000000000000000e+00  2.5034673549433095e-01  3.0710188258121546e-01  2.0734321888326579e-01  8.6258159987942867e-02  1.8358694847349952e-02  -8.5778014650300107e-04  -6.5726256875599340e-04  1.3325823181130371e-03  1.4644860539476598e-03  9.5019906792716399e-04  6.3640300401886544e-04  5.0748371194801235e-04  4.0826068821599290e-04  3.2091566214471456e-04  2.8816178542661453e-04  3.3910401374569117e-04  5.0720539305200549e-04  8.9742888593925677e-04  1.7765613531097167e-03  3.6868121527719681e-03  7.5460906994773711e-03  1.4585249227934336e-02  2.5884731241266501e-02  4.1266511012962047e-02  5.8188441837961874e-02  7.1195619882323036e-02  7.0818950123797395e-02  4.5214309935697826e-02  1.5231116135741721e-01  2.0152198372243726e+00  0.0000000000000000e+00  2.4881136251185235e-01  2.9654509220016323e-01  1.8906810958404624e-01  7.0919302325491415e-02  1.1745801197088393e-02  -1.5288793463451634e-03  -1.1969845793893835e-04  1.1556843025738370e-03  8.7128006182328021e-04  4.5355013409187220e-04  2.9090940555608318e-04  2.0382863616604785e-04  1.1722758792323433e-04  6.1525293595722988e-05  4.5677185202813151e-05  5.4216380643791888e-05  9.1971222051529092e-05  2.1906833445110713e-04  6.1020565615974205e-04  1.6929397237659208e-03  4.3589953356876080e-03  1.0095323033463676e-02  2.0630352355851402e-02  3.6750296865225268e-02  5.6174200318371531e-02  7.3053253102155491e-02  7.7200636580685641e-02  5.1949280142215108e-02  9.0427491437759244e-02  1.6414091525432331e+00  0.0000000000000000e+00  2.4496085154657637e-01  2.8666347118272179e-01  1.7595446096111170e-01  6.1556489057243924e-02  8.5171896037904947e-03  -1.5301289763668560e-03  9.4233696273537799e-05  8.7257108732580527e-04  4.9888257831636384e-04  2.1862979545222278e-04  1.3542978103278270e-04  7.3461771972270579e-05  2.1463839187879192e-05  2.1400573690882874e-06  -5.6415557681366116e-07  -3.1246108901349502e-06  -3.1020740556148561e-06  2.1059813446422467e-05  1.5595213502696484e-04  7.0560214024947539e-04  2.4842377463142849e-03  7.1167067050379798e-03  1.6924107005357934e-02  3.3585093344886442e-02  5.5702516450022430e-02  7.6300507256397657e-02  8.5362968385611859e-02  6.2637004745294628e-02  5.6987236766686648e-02  1.3221857352029101e+00  0.0000000000000000e+00  2.3928958735925893e-01  2.7788521809584915e-01  1.6760955803477554e-01  5.6856535030130308e-02  7.3754029850311579e-03  -1.3662803696254688e-03  9.4547039948483243e-05  6.3136153500448580e-04  2.9732913981246053e-04  1.1110854885898259e-04  6.5410717515629254e-05  2.5414475974978955e-05  4.1979576894677326e-08  -3.1506994011700046e-06  -2.0921978140491355e-06  -3.7563888666345444e-06  -7.3727792430937015e-06  -1.3630371386903705e-05  6.8730793451487409e-06  2.4528157306080608e-04  1.3751871892885596e-03  5.0322909713000595e-03  1.3901090640321041e-02  3.0597351822480499e-02  5.4376056234972832e-02  7.8326770964444778e-02  9.0068730400244670e-02  7.1998346158890239e-02  3.5368104342295224e-02  1.0519573501551045e+00  0.0000000000000000e+00  2.3217796686245987e-01  2.7033881926606440e-01  1.6353577353644169e-01  5.5957172688834683e-02  7.7062695617030001e-03  -1.1588072997063437e-03  -2.1692161708796928e-05  4.5711469061948841e-04  1.9842482587078538e-04  6.1104061488605267e-05  3.3628856429203445e-05  1.0552128432230091e-05  -1.8604864842794928e-06  -1.5299813878983408e-06  -2.4620056788172012e-07  -1.7159516147128770e-07  -1.0008316548888860e-06  -9.0154160341874938e-06  -2.4224305861539943e-05  6.0660453221747450e-05  8.0068072563254321e-04  3.7903912153134382e-03  1.2053336133890227e-02  2.8831106656841729e-02  5.4411408870044836e-02  8.1210008320147589e-02  9.6078523056412873e-02  8.1043128980654411e-02  2.8025569208590010e-02  8.2543404532710252e-01  0.0000000000000000e+00  2.2391590202559600e-01  2.6394310206564470e-01  1.6323076511564402e-01  5.8392241792303283e-02  9.3591295792179435e-03  -8.4856072894789743e-04  -2.0307400945920059e-04  3.2587959509028732e-04  1.5657598151007756e-04  3.8873679537165740e-05  1.8107868037744915e-05  6.6390858955680303e-06  -4.2554304267380921e-07  -6.6459498930001588e-07  -3.4937092226305531e-08  3.5271024294482684e-07  1.4873319111509870e-06  -2.4211025678309305e-06  -2.6073174422002025e-05  -1.1903371433136621e-05  5.1250501255786503e-04  3.1401416028665834e-03  1.1070739152844877e-02  2.8179973718414148e-02  5.5041125304846131e-02  8.4488706298841948e-02  1.0063488932374785e-01  8.8530230266123305e-02  2.4990922571253668e-02  6.3762815162177378e-01  0.0000000000000000e+00  2.1470466272522185e-01  2.5846649171256403e-01  1.6620396063879228e-01  6.4004418350437423e-02  1.2523503085108613e-02  -2.4421120327105557e-04  -4.1473432536500321e-04  1.9679501246968795e-04  1.4352848741123296e-04  3.4764674810681185e-05  9.6287262336033598e-06  4.7440367087617744e-06  1.1094182779063537e-06  3.1190347734012989e-08  -2.2416263791413429e-07  -1.0504569236612864e-07  2.2097273741980251e-06  9.3192378994661165e-07  -2.6071240189943677e-05  -4.2714597372570421e-05  4.1559322251878223e-04  2.9837425223588065e-03  1.1108679413809341e-02  2.8898195613955017e-02  5.7346797747014226e-02  8.8648539530213857e-02  1.0620154859191271e-01  9.4757460108838273e-02  2.8036359075662459e-02  4.8385428291757160e-01  0.0000000000000000e+00  2.0468569388380950e-01  2.5357118111624488e-01  1.7196230066985441e-01  7.2851392177621377e-02  1.7680601311031156e-02  1.0205659645067906e-03  -5.7862664606489814e-04  2.4517062574572157e-05  1.3042710213162105e-04  4.6948654949662103e-05  8.3508666222099187e-06  2.0818588213703346e-06  9.3740171844192748e-07  5.9796307730655005e-08  -5.8887158684021543e-07  -2.9955717080080585e-08  3.6856604212864666e-06  1.0193436137416752e-06  -3.5396573157669022e-05  -5.5472949556131356e-05  4.7217356346572682e-04  3.3606513624342129e-03  1.2207303448696298e-02  3.1307100212513039e-02  6.1184828992524060e-02  9.3971037855574049e-02  1.1133899953982879e-01  9.9784721666908230e-02  3.1808228742742369e-02  3.5972933606853297e-01  0.0000000000000000e+00  1.9394024500823454e-01  2.4882775142397323e-01  1.7995083268203366e-01  8.5088650034426130e-02  2.5578607790955183e-02  3.5877197129498438e-03  -4.6712746835087231e-04  -2.1052276077873749e-04  6.8770376077691945e-05  6.4072582613326607e-05  2.0620100174994987e-05  3.5932084134451612e-06  -1.0417668865030266e-08  -7.2769799033855520e-07  -2.5683305234511077e-07  2.3943009666178025e-06  5.9613873862617391e-06  -7.5611766355363461e-06  -6.0226412231603910e-05  -3.8595249143628334e-05  7.7787187753290243e-04  4.4516211441487548e-03  1.4775472130606955e-02  3.5705987762848425e-02  6.7223160312128036e-02  1.0041824786972853e-01  1.1704705903850045e-01  1.0352214093798437e-01  3.7187489439678929e-02  2.6117249090427858e-01  0.0000000000000000e+00  1.8250889138474899e-01  2.4374295978017924e-01  1.8949709498049599e-01  1.0084132400403553e-01  3.7199177235651915e-02  8.5164064994243272e-03  4.9188332777228602e-04  -3.9008450122463831e-04  -9.7540416239786715e-05  3.6311921877911518e-05  3.6884271178090862e-05  1.7692204332141545e-05  7.5747119180653807e-06  4.5634659126952087e-06  5.4855985933592622e-06  6.9159597637471569e-06  -9.9026039772510180e-07  -4.0367581950536183e-05  -9.2352432212826834e-05  1.1392512263656054e-04  1.5998961114713755e-03  6.7655898138324596e-03  1.9359852892983531e-02  4.2736646648175433e-02  7.5543949991093748e-02  1.0822829937230601e-01  1.2248210673993673e-01  1.0619101898769545e-01  4.1643251648097568e-02  1.8440521023001269e-01  0.0000000000000000e+00  1.7040339523633055e-01  2.3775059029851434e-01  1.9972711688229591e-01  1.2000173046455312e-01  5.3623921408559712e-02  1.7388329808879253e-02  3.5094639932569840e-03  2.7612286410014011e-05  -2.8684011624725153e-04  -1.1157712038048956e-04  -1.2218917350000565e-05  1.2462518460365326e-05  1.2971392975295478e-05  9.3864761267678792e-06  3.7199632031600198e-06  -1.1526174664454684e-05  -4.7882469235738047e-05  -9.6313785384350244e-05  -1.2569678808835862e-05  7.4981737607392521e-04  3.6109198864366612e-03  1.1195915398418091e-02  2.6948900766842240e-02  5.2975085155665132e-02  8.6511202376867741e-02  1.1706026217663450e-01  1.2773519778941447e-01  1.0751674877279149e-01  4.5499461070668296e-02  1.2595123982652329e-01  0.0000000000000000e+00  1.5759137875052689e-01  2.3024332883913379e-01  2.0950328340082522e-01  1.4201383062388534e-01  7.5767256551393505e-02  3.2284275758879113e-02  1.0778300058232970e-02  2.5537265080681328e-03  2.0359454332986629e-04  -2.0366088308039124e-04  -1.6866081624276096e-04  -1.0104025953765170e-04  -6.5609862440955621e-05  -5.6945528639048766e-05  -6.7376109261243512e-05  -9.0448279716373380e-05  -9.4999047988300430e-05  4.5797308741271246e-05  7.1896220395134590e-04  2.8412935981510300e-03  8.1643885450241437e-03  1.9272381494060683e-02  3.8749389553015490e-02  6.7117395522881290e-02  9.9960286340321919e-02  1.2660427916519762e-01  1.3204182139499301e-01  1.0749705113676319e-01  4.7758775653369508e-02  8.2636608450181934e-02  0.0000000000000000e+00  1.4405652630679161e-01  2.2056351252151035e-01  2.1737169328273068e-01  1.6556494477433015e-01  1.0384514432949335e-01  5.5361663224473598e-02  2.5558611341089887e-02  1.0330179015488949e-02  3.6616946050883441e-03  1.1130712889346835e-03  2.5492568986483586e-04  2.8069331888920327e-06  -5.4729606291392522e-05  -4.8722001760582848e-05  1.5819557842132841e-06  1.4627495823754137e-04  5.3642935115566113e-04  1.5181387946235573e-03  3.7897658911714960e-03  8.5690764045435516e-03  1.7657916242247513e-02  3.3077345026558722e-02  5.6093086791497812e-02  8.5390270610898544e-02  1.1540847926554218e-01  1.3591590574194559e-01  1.3485175564380369e-01  1.0576020732708742e-01  4.8528256734707155e-02  5.1589627832943942e-02  0.0000000000000000e+00  1.2970065852847507e-01  2.0803753246258269e-01  2.2153896118047445e-01  1.8834415613290217e-01  1.3666209769428692e-01  8.7885210612944367e-02  5.1540102539200765e-02  2.8323238162352674e-02  1.5038814356473692e-02  8.0149069561356884e-03  4.5015271029618647e-03  2.8271437839463703e-03  2.1098483837411509e-03  1.9493501598677866e-03  2.2315410116191263e-03  3.0471299373257916e-03  4.6932916244678356e-03  7.7274354131237882e-03  1.3030754901424109e-02  2.1808759804070401e-02  3.5407508960331943e-02  5.4795102689313743e-02  7.9649396521441790e-02  1.0719242208381377e-01  1.3144630943127805e-01  1.4370788006789015e-01  1.3519216643492588e-01  1.0206043130682275e-01  4.7541128368630690e-02  3.0240892682348197e-02  0.0000000000000000e+00  1.1451644097096013e-01  1.9201295651272798e-01  2.1995986620288263e-01  2.0685394712231558e-01  1.7073841062101011e-01  1.2849651164696627e-01  9.0744551640440180e-02  6.1725499765162284e-02  4.1527119731535403e-02  2.8416123373392346e-02  2.0356271725594260e-02  1.5690756356278000e-02  1.3304695539020214e-02  1.2567178731589362e-02  1.3227784164297518e-02  1.5337917454016465e-02  1.9205728753051286e-02  2.5363530289267560e-02  3.4507413666906774e-02  4.7351646825850371e-02  6.4346138359010527e-02  8.5200982439891076e-02  1.0832100638485982e-01  1.3024116197679217e-01  1.4565022091199958e-01  1.4806908194827315e-01  1.3207403547813706e-01  9.5998643486626553e-02  4.4885850987190834e-02  1.6323280681517394e-02  0.0000000000000000e+00  9.8326162794423119e-02  1.7184505756689153e-01  2.1040533424959418e-01  2.1649470964466361e-01  1.9975511509419944e-01  1.7130345885804996e-01  1.4007113807831362e-01  1.1156897655069781e-01  8.8275502135945191e-02  7.0662680444638998e-02  5.8190745175315868e-02  5.0001245220168695e-02  4.5296520935890976e-02  4.3497808446977648e-02  4.4278571728097217e-02  4.7538590028297072e-02  5.3348021275840325e-02  6.1866279467596853e-02  7.3223150976383891e-02  8.7350822153515861e-02  1.0375358398488112e-01  1.2124741992356484e-01  1.3772249395630723e-01  1.5005681062906581e-01  1.5438393765772185e-01  1.4672317156623282e-01  1.2439150419701278e-01  8.7254062687158074e-02  4.0597747248242159e-02  7.8719524891576933e-03  0.0000000000000000e+00  8.1172886223829677e-02  1.4709290241614198e-01  1.9087225827474347e-01  2.1211218728634174e-01  2.1477647704351036e-01  2.0469372362504679e-01  1.8761784902370193e-01  1.6814157196673402e-01  1.4937227164095568e-01  1.3308768833209153e-01  1.2009338649715232e-01  1.1059282553955443e-01  1.0447819874362124e-01  1.0151987638158162e-01  1.0146612591535764e-01  1.0407603427597013e-01  1.0910458601009865e-01  1.1625365387579401e-01  1.2509788373719513e-01  1.34992145