<?xml version="1.0"?>
<VTKFile type="UnstructuredGrid"  version="0.1"  >
<UnstructuredGrid>
<Piece  NumberOfPoints="961" NumberOfCells="1800">
<Points>
<DataArray  type="Float64"  NumberOfComponents="3"  format="ascii">-1 -1 0  -0.9333333333333333 -1 0  -0.8666666666666667 -1 0  -0.8 -1 0  -0.7333333333333334 -1 0  -0.6666666666666667 -1 0  -0.6 -1 0  -0.5333333333333333 -1 0  -0.4666666666666667 -1 0  -0.4 -1 0  -0.3333333333333334 -1 0  -0.2666666666666667 -1 0  -0.2 -1 0  -0.1333333333333333 -1 0  -0.06666666666666665 -1 0  0 -1 0  0.06666666666666665 -1 0  0.1333333333333333 -1 0  0.2 -1 0  0.2666666666666666 -1 0  0.3333333333333333 -1 0  0.3999999999999999 -1 0  0.4666666666666666 -1 0  0.5333333333333334 -1 0  0.6000000000000001 -1 0  0.6666666666666667 -1 0  0.7333333333333334 -1 0  0.8 -1 0  0.8666666666666667 -1 0  0.9333333333333333 -1 0  1 -1 0  -1 -0.9333333333333333 0  -0.9333333333333333 -0.9333333333333333 0  -0.8666666666666667 -0.9333333333333333 0  -0.8 -0.9333333333333333 0  -0.7333333333333334 -0.9333333333333333 0  -0.6666666666666667 -0.9333333333333333 0  -0.6 -0.9333333333333333 0  -0.5333333333333333 -0.9333333333333333 0  -0.4666666666666667 -0.9333333333333333 0  -0.4 -0.9333333333333333 0  -0.3333333333333334 -0.9333333333333333 0  -0.2666666666666667 -0.9333333333333333 0  -0.2 -0.9333333333333333 0  -0.1333333333333333 -0.9333333333333333 0  -0.06666666666666665 -0.9333333333333333 0  0 -0.9333333333333333 0  0.06666666666666665 -0.9333333333333333 0  0.1333333333333333 -0.9333333333333333 0  0.2 -0.9333333333333333 0  0.2666666666666666 -0.9333333333333333 0  0.3333333333333333 -0.9333333333333333 0  0.3999999999999999 -0.9333333333333333 0  0.4666666666666666 -0.9333333333333333 0  0.5333333333333334 -0.9333333333333333 0  0.6000000000000001 -0.9333333333333333 0  0.6666666666666667 -0.9333333333333333 0  0.7333333333333334 -0.9333333333333333 0  0.8 -0.9333333333333333 0  0.8666666666666667 -0.9333333333333333 0  0.9333333333333333 -0.9333333333333333 0  1 -0.9333333333333333 0  -1 -0.8666666666666667 0  -0.9333333333333333 -0.8666666666666667 0  -0.8666666666666667 -0.8666666666666667 0  -0.8 -0.8666666666666667 0  -0.7333333333333334 -0.8666666666666667 0  -0.6666666666666667 -0.8666666666666667 0  -0.6 -0.8666666666666667 0  -0.5333333333333333 -0.8666666666666667 0  -0.4666666666666667 -0.8666666666666667 0  -0.4 -0.8666666666666667 0  -0.3333333333333334 -0.8666666666666667 0  -0.2666666666666667 -0.8666666666666667 0  -0.2 -0.8666666666666667 0  -0.1333333333333333 -0.8666666666666667 0  -0.06666666666666665 -0.8666666666666667 0  0 -0.8666666666666667 0  0.06666666666666665 -0.8666666666666667 0  0.1333333333333333 -0.8666666666666667 0  0.2 -0.8666666666666667 0  0.2666666666666666 -0.8666666666666667 0  0.3333333333333333 -0.8666666666666667 0  0.3999999999999999 -0.8666666666666667 0  0.4666666666666666 -0.8666666666666667 0  0.5333333333333334 -0.8666666666666667 0  0.6000000000000001 -0.8666666666666667 0  0.6666666666666667 -0.8666666666666667 0  0.7333333333333334 -0.8666666666666667 0  0.8 -0.8666666666666667 0  0.8666666666666667 -0.8666666666666667 0  0.9333333333333333 -0.8666666666666667 0  1 -0.8666666666666667 0  -1 -0.8 0  -0.9333333333333333 -0.8 0  -0.8666666666666667 -0.8 0  -0.8 -0.8 0  -0.7333333333333334 -0.8 0  -0.6666666666666667 -0.8 0  -0.6 -0.8 0  -0.5333333333333333 -0.8 0  -0.4666666666666667 -0.8 0  -0.4 -0.8 0  -0.3333333333333334 -0.8 0  -0.2666666666666667 -0.8 0  -0.2 -0.8 0  -0.1333333333333333 -0.8 0  -0.06666666666666665 -0.8 0  0 -0.8 0  0.06666666666666665 -0.8 0  0.1333333333333333 -0.8 0  0.2 -0.8 0  0.2666666666666666 -0.8 0  0.3333333333333333 -0.8 0  0.3999999999999999 -0.8 0  0.4666666666666666 -0.8 0  0.5333333333333334 -0.8 0  0.6000000000000001 -0.8 0  0.6666666666666667 -0.8 0  0.7333333333333334 -0.8 0  0.8 -0.8 0  0.8666666666666667 -0.8 0  0.9333333333333333 -0.8 0  1 -0.8 0  -1 -0.7333333333333334 0  -0.9333333333333333 -0.7333333333333334 0  -0.8666666666666667 -0.7333333333333334 0  -0.8 -0.7333333333333334 0  -0.7333333333333334 -0.7333333333333334 0  -0.6666666666666667 -0.7333333333333334 0  -0.6 -0.7333333333333334 0  -0.5333333333333333 -0.7333333333333334 0  -0.4666666666666667 -0.7333333333333334 0  -0.4 -0.7333333333333334 0  -0.3333333333333334 -0.7333333333333334 0  -0.2666666666666667 -0.7333333333333334 0  -0.2 -0.7333333333333334 0  -0.1333333333333333 -0.7333333333333334 0  -0.06666666666666665 -0.7333333333333334 0  0 -0.7333333333333334 0  0.06666666666666665 -0.7333333333333334 0  0.1333333333333333 -0.7333333333333334 0  0.2 -0.7333333333333334 0  0.2666666666666666 -0.7333333333333334 0  0.3333333333333333 -0.7333333333333334 0  0.3999999999999999 -0.7333333333333334 0  0.4666666666666666 -0.7333333333333334 0  0.5333333333333334 -0.7333333333333334 0  0.6000000000000001 -0.7333333333333334 0  0.6666666666666667 -0.7333333333333334 0  0.7333333333333334 -0.7333333333333334 0  0.8 -0.7333333333333334 0  0.8666666666666667 -0.7333333333333334 0  0.9333333333333333 -0.7333333333333334 0  1 -0.7333333333333334 0  -1 -0.6666666666666667 0  -0.9333333333333333 -0.6666666666666667 0  -0.8666666666666667 -0.6666666666666667 0  -0.8 -0.6666666666666667 0  -0.7333333333333334 -0.6666666666666667 0  -0.6666666666666667 -0.6666666666666667 0  -0.6 -0.6666666666666667 0  -0.5333333333333333 -0.6666666666666667 0  -0.4666666666666667 -0.6666666666666667 0  -0.4 -0.6666666666666667 0  -0.3333333333333334 -0.6666666666666667 0  -0.2666666666666667 -0.6666666666666667 0  -0.2 -0.6666666666666667 0  -0.1333333333333333 -0.6666666666666667 0  -0.06666666666666665 -0.6666666666666667 0  0 -0.6666666666666667 0  0.06666666666666665 -0.6666666666666667 0  0.1333333333333333 -0.6666666666666667 0  0.2 -0.6666666666666667 0  0.2666666666666666 -0.6666666666666667 0  0.3333333333333333 -0.6666666666666667 0  0.3999999999999999 -0.6666666666666667 0  0.4666666666666666 -0.6666666666666667 0  0.5333333333333334 -0.6666666666666667 0  0.6000000000000001 -0.6666666666666667 0  0.6666666666666667 -0.6666666666666667 0  0.7333333333333334 -0.6666666666666667 0  0.8 -0.6666666666666667 0  0.8666666666666667 -0.6666666666666667 0  0.9333333333333333 -0.6666666666666667 0  1 -0.6666666666666667 0  -1 -0.6 0  -0.9333333333333333 -0.6 0  -0.8666666666666667 -0.6 0  -0.8 -0.6 0  -0.7333333333333334 -0.6 0  -0.6666666666666667 -0.6 0  -0.6 -0.6 0  -0.5333333333333333 -0.6 0  -0.4666666666666667 -0.6 0  -0.4 -0.6 0  -0.3333333333333334 -0.6 0  -0.2666666666666667 -0.6 0  -0.2 -0.6 0  -0.1333333333333333 -0.6 0  -0.06666666666666665 -0.6 0  0 -0.6 0  0.06666666666666665 -0.6 0  0.1333333333333333 -0.6 0  0.2 -0.6 0  0.2666666666666666 -0.6 0  0.3333333333333333 -0.6 0  0.3999999999999999 -0.6 0  0.4666666666666666 -0.6 0  0.5333333333333334 -0.6 0  0.6000000000000001 -0.6 0  0.6666666666666667 -0.6 0  0.7333333333333334 -0.6 0  0.8 -0.6 0  0.8666666666666667 -0.6 0  0.9333333333333333 -0.6 0  1 -0.6 0  -1 -0.5333333333333333 0  -0.9333333333333333 -0.5333333333333333 0  -0.8666666666666667 -0.5333333333333333 0  -0.8 -0.5333333333333333 0  -0.7333333333333334 -0.5333333333333333 0  -0.6666666666666667 -0.5333333333333333 0  -0.6 -0.5333333333333333 0  -0.5333333333333333 -0.5333333333333333 0  -0.4666666666666667 -0.5333333333333333 0  -0.4 -0.5333333333333333 0  -0.3333333333333334 -0.5333333333333333 0  -0.2666666666666667 -0.5333333333333333 0  -0.2 -0.5333333333333333 0  -0.1333333333333333 -0.5333333333333333 0  -0.06666666666666665 -0.5333333333333333 0  0 -0.5333333333333333 0  0.06666666666666665 -0.5333333333333333 0  0.1333333333333333 -0.5333333333333333 0  0.2 -0.5333333333333333 0  0.2666666666666666 -0.5333333333333333 0  0.3333333333333333 -0.5333333333333333 0  0.3999999999999999 -0.5333333333333333 0  0.4666666666666666 -0.5333333333333333 0  0.5333333333333334 -0.5333333333333333 0  0.6000000000000001 -0.5333333333333333 0  0.6666666666666667 -0.5333333333333333 0  0.7333333333333334 -0.5333333333333333 0  0.8 -0.5333333333333333 0  0.8666666666666667 -0.5333333333333333 0  0.9333333333333333 -0.5333333333333333 0  1 -0.5333333333333333 0  -1 -0.4666666666666667 0  -0.9333333333333333 -0.4666666666666667 0  -0.8666666666666667 -0.4666666666666667 0  -0.8 -0.4666666666666667 0  -0.7333333333333334 -0.4666666666666667 0  -0.6666666666666667 -0.4666666666666667 0  -0.6 -0.4666666666666667 0  -0.5333333333333333 -0.4666666666666667 0  -0.4666666666666667 -0.4666666666666667 0  -0.4 -0.4666666666666667 0  -0.3333333333333334 -0.4666666666666667 0  -0.2666666666666667 -0.4666666666666667 0  -0.2 -0.4666666666666667 0  -0.1333333333333333 -0.4666666666666667 0  -0.06666666666666665 -0.4666666666666667 0  0 -0.4666666666666667 0  0.06666666666666665 -0.4666666666666667 0  0.1333333333333333 -0.4666666666666667 0  0.2 -0.4666666666666667 0  0.2666666666666666 -0.4666666666666667 0  0.3333333333333333 -0.4666666666666667 0  0.3999999999999999 -0.4666666666666667 0  0.4666666666666666 -0.4666666666666667 0  0.5333333333333334 -0.4666666666666667 0  0.6000000000000001 -0.4666666666666667 0  0.6666666666666667 -0.4666666666666667 0  0.7333333333333334 -0.4666666666666667 0  0.8 -0.4666666666666667 0  0.8666666666666667 -0.4666666666666667 0  0.9333333333333333 -0.4666666666666667 0  1 -0.4666666666666667 0  -1 -0.4 0  -0.9333333333333333 -0.4 0  -0.8666666666666667 -0.4 0  -0.8 -0.4 0  -0.7333333333333334 -0.4 0  -0.6666666666666667 -0.4 0  -0.6 -0.4 0  -0.5333333333333333 -0.4 0  -0.4666666666666667 -0.4 0  -0.4 -0.4 0  -0.3333333333333334 -0.4 0  -0.2666666666666667 -0.4 0  -0.2 -0.4 0  -0.1333333333333333 -0.4 0  -0.06666666666666665 -0.4 0  0 -0.4 0  0.06666666666666665 -0.4 0  0.1333333333333333 -0.4 0  0.2 -0.4 0  0.2666666666666666 -0.4 0  0.3333333333333333 -0.4 0  0.3999999999999999 -0.4 0  0.4666666666666666 -0.4 0  0.5333333333333334 -0.4 0  0.6000000000000001 -0.4 0  0.6666666666666667 -0.4 0  0.7333333333333334 -0.4 0 
[...]
<PointData  Scalars="f_24"> 
<DataArray  type="Float64"  Name="f_24"  format="ascii">0.0000000000000000e+00  0.0000000000000000e+00  0.0000000000000000e+00  0.0000000000000000e+00  0.0000000000000000e+00  0.0000000000000000e+00  0.0000000000000000e+00  0.0000000000000000e+00  0.0000000000000000e+00  0.0000000000000000e+00  0.0000000000000000e+00  0.0000000000000000e+00  0.0000000000000000e+00  0.0000000000000000e+00  0.0000000000000000e+00  0.0000000000000000e+00  0.0000000000000000e+00  0.0000000000000000e+00  0.0000000000000000e+00  0.0000000000000000e+00  0.0000000000000000e+00  0.0000000000000000e+00  0.0000000000000000e+00  0.0000000000000000e+00  0.0000000000000000e+00  0.0000000000000000e+00  0.0000000000000000e+00  0.0000000000000000e+00  0.0000000000000000e+00  0.0000000000000000e+00  1.0941782547397700e+01  0.0000000000000000e+00  5.3347648275354626e-02  1.0366457377762109e-01  1.5100441918087854e-01  1.9582595066900085e-01  2.3860393543247724e-01  2.7982986924782022e-01  3.2002750118730910e-01  3.5976625710032745e-01  3.9967597500238372e-01  4.4046252480881976e-01  4.8292672246209206e-01  5.2798967516319328e-01  5.7672808847646240e-01  6.3042384640672622e-01  6.9063351668193163e-01  7.5928561424260688e-01  8.3881709770483481e-01  9.3236619628246709e-01  1.0440474741805070e+00  1.1793489250048110e+00  1.3457133978652966e+00  1.5534046039374692e+00  1.8168250627636844e+00  2.1565801685883490e+00  2.6028394433238660e+00  3.2011004369415952e+00  4.0229022025076304e+00  5.1872589121098072e+00  6.9129497862631126e+00  9.5542159282790031e+00  0.0000000000000000e+00  1.0300201778694221e-01  1.9390857799648351e-01  2.6914621863016730e-01  3.2777104179254191e-01  3.7035405687156431e-01  3.9848031279933149e-01  4.1428006562800546e-01  4.2006314240478304e-01  4.1806739718544161e-01  4.1030907843753561e-01  3.9851646306477689e-01  3.8412299831274288e-01  3.6829939945116325e-01  3.5201013908841683e-01  3.3608658548830345e-01  3.2131651359238450e-01  3.0855785214898779e-01  2.9889500624625709e-01  2.9387193676315154e-01  2.9586260301781975e-01  3.0868569729983486e-01  3.3865375004527221e-01  3.9640011417003568e-01  5.0012031680933244e-01  6.8146068883314370e-01  9.9663997426058382e-01  1.5486132684600487e+00  2.5371822054045587e+00  4.3856363766454463e+00  8.3030028314238038e+00  0.0000000000000000e+00  1.4682619510698089e-01  2.6385369321783825e-01  3.4101743260272316e-01  3.7811407328830271e-01  3.8113358133651093e-01  3.5892351997267313e-01  3.2058833175725182e-01  2.7395902904151365e-01  2.2497146874682039e-01  1.7765245051236736e-01  1.3442117721357000e-01  9.6492680039373502e-02  6.4262150095439730e-02  3.7617292506651918e-02  1.6168476232261596e-02  -5.9216480781092455e-04  -1.3182915681462397e-02  -2.2052453632840828e-02  -2.7498448285823509e-02  -2.9539897796454818e-02  -2.7658466225738119e-02  -2.0231815776587572e-02  -3.2793742206706504e-03  3.2296439766608190e-02  1.0673284415219930e-01  2.6453047450231526e-01  6.0398631794071433e-01  1.3458972710323487e+00  3.0313022303372965e+00  7.1789035293476315e+00  0.0000000000000000e+00  1.8367601251356591e-01  3.1200724720208178e-01  3.6938556834558073e-01  3.6410653454108571e-01  3.1670837732641322e-01  2.4930643636513153e-01  1.7930761769494322e-01  1.1746089724125215e-01  6.8608242621131604e-02  3.3496628023189395e-02  1.0586707698106726e-02  -2.5970676815015785e-03  -8.6384209822363833e-03  -9.8145584219249959e-03  -7.9490604972031996e-03  -4.4121050579130844e-03  -1.8791454190667168e-04  4.0363735443491970e-03  7.7831649214156065e-03  1.0710134682054845e-02  1.2567015724323670e-02  1.3244694723336749e-02  1.3127417130289826e-02  1.4388531918071641e-02  2.5016095349819627e-02  7.0293502553603782e-02  2.2343257100235597e-01  6.9016625784409735e-01  2.0438073865872304e+00  6.1730024955303850e+00  0.0000000000000000e+00  2.1317399194574171e-01  3.4053256748344457e-01  3.6551273350137309e-01  3.1465337467231108e-01  2.2919317032894590e-01  1.4317911255774957e-01  7.5289257096932433e-02  3.0593628617796992e-02  6.0715734175669023e-03  -4.2955723914248354e-03  -6.3868876860466179e-03  -4.6257930542910677e-03  -1.7967557973919391e-03  6.3581716221221285e-04  2.0953329745347559e-03  2.5223518051876817e-03  2.1130916583205531e-03  1.1564505307748525e-03  -5.9257824902941580e-05  -1.2999719074918749e-03  -2.4286405328420770e-03  -3.4647222846925438e-03  -4.6630812599311091e-03  -6.4089246481717575e-03  -7.8253935184772836e-03  8.8927235892876695e-05  6.0781979445725838e-02  3.3653474536299738e-01  1.3952924332712928e+00  5.2767084044163299e+00  0.0000000000000000e+00  2.3553782101825321e-01  3.5344812099335804e-01  3.4231334012359976e-01  2.5422965162031541e-01  1.5070588744527791e-01  6.9696954943335721e-02  2.1655581064568573e-02  4.1680326884164154e-04  -5.0257139031060129e-03  -3.7830071915215661e-03  -1.1713691143084893e-03  6.3155262161227626e-04  1.2679508459200574e-03  1.1301820888813122e-03  7.4581958214741837e-04  5.1888839608034973e-04  6.7342037605890275e-04  1.2831298527815299e-03  2.3216332877892282e-03  3.7037160884978051e-03  5.3073619239483840e-03  6.9656914222895709e-03  8.3871625050705185e-03  8.8920880169421051e-03  7.1137250092089569e-03  3.0716610462503081e-03  1.4518048938626441e-02  1.5561161183743175e-01  9.3055959229991614e-01  4.4817541314140987e+00  0.0000000000000000e+00  2.5138677625690148e-01  3.5519551207905631e-01  3.1049631333725730e-01  1.9764623132787754e-01  9.2715910540084240e-02  2.8292428347610369e-02  1.2956723802617092e-03  -4.4068220799139291e-03  -2.5824788012564020e-03  -2.2858476983533355e-04  7.4698766483119287e-04  6.8589072827678879e-04  3.3265474627549912e-04  1.3846295729377965e-04  2.1065392943409630e-04  4.6861856918918701e-04  7.9230285007495058e-04  1.1053026602582732e-03  1.4002100813093079e-03  1.7266291810452460e-03  2.1576943373435927e-03  2.7507416165986759e-03  3.5071931287660330e-03  4.2644252665409998e-03  4.1158637878792419e-03  4.9591671641629586e-04  -4.0993682109392113e-03  5.6224665706204671e-02  6.0931331496159535e-01  3.7801967528966904e+00  0.0000000000000000e+00  2.6155604073604422e-01  3.4977067421393532e-01  2.7737856651192444e-01  1.5131919586457598e-01  5.4676291114985849e-02  8.4690089083930293e-03  -3.6137187034725360e-03  -2.6353443567384699e-03  -2.2561087217700496e-04  5.8753566396276750e-04  3.8241184426160348e-04  7.8339295350849053e-05  1.0953809259177641e-05  1.1381684286075928e-04  2.4529437512941116e-04  3.4698245394840227e-04  4.5863997801627766e-04  6.8008166439105261e-04  1.1343304450024999e-03  1.9430097750657252e-03  3.2003221895455535e-03  4.9249145566139987e-03  7.0090823657842985e-03  9.1968661486246123e-03  1.0975602486221972e-02  1.0123832056418446e-02  1.9950346264957703e-03  1.6349853608492830e-02  3.8840283111010665e-01  3.1644175462014772e+00  0.0000000000000000e+00  2.6694829164710360e-01  3.4034607277677481e-01  2.4720765312868342e-01  1.1645956779002475e-01  3.1693767416534332e-02  4.0121789008942132e-04  -3.3398041777001333e-03  -8.0028103143430700e-04  4.4181716096425825e-04  3.1404146431389461e-04  1.8424629689599425e-05  -3.0420144031038856e-05  4.4405212606756479e-05  9.4059132398670913e-05  9.8573195995867586e-05  1.0857660744873600e-04  1.7510667743184059e-04  3.3414102916538542e-04  6.3170714596738739e-04  1.1574354014333430e-03  2.0535324956254216e-03  3.4670085986634493e-03  5.4081828426553458e-03  7.6397226752267398e-03  9.6813643877816744e-03  1.0436314081569663e-02  4.1498865154377760e-03  -3.5476687143647621e-03  2.3280210360712883e-01  2.6271219896301874e+00  0.0000000000000000e+00  2.6843038516705209e-01  3.2921537801094536e-01  2.2201245195361918e-01  9.1830334632799562e-02  1.8664350871261590e-02  -2.2157311658627435e-03  -2.1230894033158979e-03  5.4492614140202512e-05  3.6786673240677667e-04  5.1270287750825279e-05  -4.9740436786635474e-05  7.3010551018497112e-06  3.9207789365185581e-05  2.5649925466710219e-05  1.4319957061027513e-05  2.7981246495665610e-05  6.5848105796587647e-05  1.4337770613252437e-04  3.2908610535327062e-04  7.7272100050189527e-04  1.7178005756009400e-03  3.4531350863058119e-03  6.1576319240018319e-03  9.5572287864763451e-03  1.2925587481503320e-02  1.5158556848261340e-02  1.2306677802341981e-02  -4.3139415286586819e-03  1.3345956969581926e-01  2.1613397624489297e+00  0.0000000000000000e+00  2.6677724139676579e-01  3.1789845258220800e-01  2.0244688961994717e-01  7.5462857864329783e-02  1.1732810409900280e-02  -2.6780264755359232e-03  -1.1924451458493947e-03  2.9051096023982207e-04  1.8749748586717815e-04  -3.9188590426559665e-05  -2.3502770600597374e-05  1.9969185946657785e-05  1.2038858388558334e-05  -2.3091103245300222e-06  -1.0485006125404753e-06  4.2598622698234303e-06  8.1203474590336487e-06  2.8029727496162045e-05  1.1472434847672370e-04  3.8884588975312981e-04  1.0981325437428651e-03  2.6336614223981367e-03  5.3541566506687685e-03  9.2250666195389189e-03  1.3191445687309282e-02  1.6082348411491362e-02  1.4894033564320888e-02  -2.1947994476590074e-03  6.3845040240592857e-02  1.7604247448881674e+00  0.0000000000000000e+00  2.6263891403855472e-01  3.0730647871556832e-01  1.8842040696035509e-01  6.5508641568912826e-02  8.4233642654553634e-03  -2.4551822937757964e-03  -6.8372044652065353e-04  2.8945763620545802e-04  7.6582861097754631e-05  -4.6027100065895591e-05  -2.1575132764921219e-06  1.3191240452794767e-05  -7.2716010029258689e-07  -3.6044060267586122e-06  -1.3274259846797513e-07  -1.2985764060656670e-06  -4.6319014392260785e-06  -2.8059116647780269e-06  2.8372881724570657e-05  1.8787834388321248e-04  7.5077443383680346e-04  2.2280218052913351e-03  5.2446106349024269e-03  9.9455238120977323e-03  1.5405169658879751e-02  1.9232432971400166e-02  2.0112731600363015e-02  4.6274548084013168e-03  2.4973484868283866e-02  1.4180550181427418e+00  0.0000000000000000e+00  2.5654843718993248e-01  2.9789565050333444e-01  1.7950995598848493e-01  6.0552034917053292e-02  7.3368004643237054e-03  -2.0951019644648572e-03  -4.7409553472942606e-04  2.3462170704883001e-04  3.2768016020384484e-05  -3.4605484639464537e-05  3.8125226363739340e-06  6.4917670296645143e-06  -2.5705641147386365e-06  -1.1143273799819447e-06  5.6914199160213512e-07  -8.3253445140072759e-07  -2.7376316701361904e-06  -7.6458888881371214e-06  -9.5284647167775185e-06  6.3035594771546638e-05  4.6869552618754529e-04  1.8008547440002941e-03  4.8628142979030252e-03  1.0144115028859533e-02  1.6542289070293301e-02  2.1449001590029510e-02  2.2206964932762602e-02  1.0508297870935992e-02  -9.3961037972630380e-04  1.1282328643718560e+00  0.0000000000000000e+00  2.4890701593899295e-01  2.8980417308803269e-01  1.7517620613196233e-01  5.9665824961298360e-02  7.8097841223251111e-03  -1.7257349076428346e-03  -4.4711362253074046e-04  1.8106291657302934e-04  2.6277769173648262e-05  -2.5325154787209518e-05  2.5006806535817397e-06  3.7190888392758735e-06  -1.5617591623019057e-06  -3.2262921391248475e-07  3.8478389597865576e-07  1.0943060744694765e-07  9.2735302808141376e-08  -4.2758963741591166e-06  -1.7272515150287089e-05  5.8169365712133608e-06  3.1458315860511885e-04  1.5682933256713229e-03  4.8438062166070144e-03  1.0803071307838941e-02  1.8651897638883429e-02  2.4637284662891390e-02  2.6137746671364846e-02  1.6542770632834013e-02  -1.1214086488961845e-02  8.8528476669908107e-01  0.0000000000000000e+00  2.4003572417146346e-01  2.8294037755602303e-01  1.7488199909854626e-01  6.2345340889124315e-02  9.6819798455721230e-03  -1.2791508814259116e-03  -5.3294421873399916e-04  1.2651689609961266e-04  3.8440741195012611e-05  -1.8444368768034011e-05  -1.4290198568526655e-06  2.8035507602298325e-06  -2.4677178321805057e-07  -2.2273239428041530e-07  2.9081247939724914e-08  1.4164852857903827e-07  1.2286012959368338e-06  -8.1278909653179218e-07  -1.8229463218138181e-05  -2.3993906789983324e-05  2.2528144508547821e-04  1.4865662315045735e-03  5.0000248389944872e-03  1.1770466113051856e-02  2.0684654498985364e-02  2.8032144691854194e-02  2.8813185338349902e-02  2.1414099158642456e-02  -1.6496749838743833e-02  6.8386140921235627e-01  0.0000000000000000e+00  2.3013214865954831e-01  2.7705641082419419e-01  1.7809113088124864e-01  6.8422966055000770e-02  1.3155972163996811e-02  -5.4259781344934328e-04  -6.8218376756656808e-04  4.4608693334928170e-05  5.7553462660477911e-05  -7.8156236411565188e-06  -5.9439065566863174e-06  1.0843220264213906e-06  8.0267005936671262e-07  1.7182458444529556e-07  -1.9351258179596807e-07  -1.5497596494407129e-07  1.9019688215908428e-06  1.3513681229000058e-06  -2.0294062124825289e-05  -4.2843703079949366e-05  2.1087107359475007e-04  1.5994587739626826e-03  5.6146341829360902e-03  1.3313127199580650e-02  2.3643830362602366e-02  3.1943291762207372e-02  3.2769012137917400e-02  2.5465062127220998e-02  -1.4839350927063772e-02  5.1893767696398774e-01  0.0000000000000000e+00  2.1937363456271200e-01  2.7178535185605424e-01  1.8428267163492132e-01  7.7956792771139261e-02  1.8752949406917161e-02  8.8156132895484513e-04  -8.0093927848108322e-04  -1.0197856282337060e-04  6.3597877670407794e-05  1.2705262574402562e-05  -6.1568711507018134e-06  -2.5376703003316292e-06  -1.3772386250649619e-07  -1.2631349643407723e-07  -6.7242663845981266e-07  -4.8144954769186856e-09  3.4929698252007366e-06  1.3043498688793110e-06  -3.0910499618242273e-05  -5.5210395226157155e-05  2.7935010087461220e-04  2.0192233810622752e-03  6.7828179565741940e-03  1.5752801955515587e-02  2.7257688400917576e-02  3.6522943737675381e-02  3.6396023882329147e-02  2.8799538959422031e-02  -1.1935234693365373e-02  3.8581265597064907e-01  0.0000000000000000e+00  2.0780770792356179e-01  2.6666309019300127e-01  1.9283958842435936e-01  9.1111957690230075e-02  2.7272079641363273e-02  3.6873413501588783e-03  -6.3884239655503440e-04  -3.2658308824605746e-04  1.0717430317036786e-05  3.5023647294557893e-05  6.6904141237797354e-06  -2.2351070556171396e-06  -2.1702917471405829e-06  -1.4863718302478960e-06  -5.8391530740452692e-07  2.4389070982382977e-06  5.8300000883512557e-06  -7.1335368567149969e-06  -5.6471670804937796e-05  -4.7045332034863418e-05  5.3452980870723134e-04  2.9314754502155222e-03  8.9097065004616494e-03  1.9339312145398430e-02  3.2144787580682399e-02  4.1646329665442440e-02  4.0756818989249578e-02  3.1382809444041745e-02  -6.7888241772928988e-03  2.8010963321338117e-01  0.0000000000000000e+00  1.9552950934266261e-01  2.6116118739016930e-01  2.0305947909781966e-01  1.0802036408353213e-01  3.9773081225451659e-02  9.0137088141662297e-03  4.2296496283304860e-04  -4.9810643973402556e-04  -1.5766698014543098e-04  7.8875841764265157e-06  2.3367817076335385e-05  1.1301533340682330e-05  4.6816477788608511e-06  3.3892754051940319e-06  5.0626457560172312e-06  6.9512439281673836e-06  -1.4019300365394814e-06  -4.0214314601120306e-05  -9.1097988695663370e-05  7.8028412396358577e-05  1.2127579784854084e-03  4.7837864220451080e-03  1.2445191964109781e-02  2.4627347125922721e-02  3.8313318856527633e-02  4.7562617606829102e-02  4.5006403208898718e-02  3.3541203635035460e-02  -2.0626891408870619e-03  1.9777609663759232e-01  0.0000000000000000e+00  1.8247951013674907e-01  2.5465515648488074e-01  2.1395886129829036e-01  1.2854672426680980e-01  5.7398035117695922e-02  1.8553406966373705e-02  3.6830286689504533e-03  -3.3285388700327002e-05  -3.5197634202758436e-04  -1.4802260273470282e-04  -2.9742429758877652e-05  4.2626029852814510e-06  9.1235303577308114e-06  7.5526414707768234e-06  2.5511139599974935e-06  -1.2844761828963310e-05  -5.0258650904668129e-05  -9.8449359006928561e-05  -2.3131297111054122e-05  6.3515547978783803e-04  2.9021331275398670e-03  8.3151391205219093e-03  1.8194569059396603e-02  3.2045639143053334e-02  4.6113691834875251e-02  5.4001138292632152e-02  4.9386608538314059e-02  3.5099641957520099e-02  2.6428182167451174e-03  1.3508373515305810e-01  0.0000000000000000e+00  1.6871029787680286e-01  2.4651013077347442e-01  2.2435483646726653e-01  1.5209750990400700e-01  8.1133614417986583e-02  3.4538350866533132e-02  1.1494093196195302e-02  2.6883062651213521e-03  1.8128113824383225e-04  -2.4380097474972916e-04  -1.9709780812101764e-04  -1.1818635522632628e-04  -7.6158570937854880e-05  -6.4403219983868280e-05  -7.3915499958720975e-05  -9.7116336042471217e-05  -1.0201390052806495e-04  3.5305892063022580e-05  6.6090111217146784e-04  2.5107385223394172e-03  6.7717251179727376e-03  1.4781136440520056e-02  2.7078807134435785e-02  4.2138130577742350e-02  5.5422756627130865e-02  6.0862424298024041e-02  5.3319964447573732e-02  3.6206234682431726e-02  6.3087536332257785e-03  8.8628438633921419e-02  0.0000000000000000e+00  1.5409107769914299e-01  2.3597316966345241e-01  2.3259901105870284e-01  1.7719508936867875e-01  1.1114197180836306e-01  5.9235345159282228e-02  2.7323268293143910e-02  1.1020815801306797e-02  3.8878236073274877e-03  1.1671003541796870e-03  2.5522034982401466e-04  -9.6288440826607023e-06  -6.7827688604728969e-05  -5.9617701448830968e-05  -6.5183388537125937e-06  1.4104758997779041e-04  5.2928590986113348e-04  1.4748914102316317e-03  3.5605720742819427e-03  7.6743273371489970e-03  1.4866544590744621e-02  2.5833829414547704e-02  4.0085084245755388e-02  5.5031650206906861e-02  6.5961317595361557e-02  6.7551511399327441e-02  5.6567096507379129e-02  3.6640490826543727e-02  9.0967769289514912e-03  5.5330297918692609e-02  0.0000000000000000e+00  1.3864298156946042e-01  2.2237145695431218e-01  2.3683680404080212e-01  2.0137898803490184e-01  1.4613458528089684e-01  9.3970969814840544e-02  5.5090998711902400e-02  3.0251869835090768e-02  1.6040668353011281e-02  8.5294439076742581e-03  4.7744286283849654e-03  2.9850803925496033e-03  2.2150799542183597e-03  2.0316542495291330e-03  2.3033101614022863e-03  3.1039144484533315e-03  4.6927191323313817e-03  7.5253530798140298e-03  1.2238742653406010e-02  1.9538805402662552e-02  2.9904856461634530e-02  4.3099678604958599e-02  5.7585512512527109e-02  7.0236472833379901e-02  7.6769996326833609e-02  7.3338983815621678e-02  5.8543420174922145e-02  3.6335602985374582e-02  1.0760530774317044e-02  3.2433604810249206e-02  0.0000000000000000e+00  1.2220362232698551e-01  2.0490316162667471e-01  2.3471655999119903e-01  2.2072865838250977e-01  1.8217618265155042e-01  1.3707503611797589e-01  9.6759835768313679e-02  6.5766639158586285e-02  4.4191976607285424e-02  3.0183575780022728e-02  2.1562349770625260e-02  1.6552091190207251e-02  1.3951916617279576e-02  1.3069915992832521e-02  1.3602686566733862e-02  1.5532476759699996e-02  1.9047288418421446e-02  2.4459070386710767e-02  3.2083620786565840e-02  4.2045629112567449e-02  5.4007132807673157e-02  6.6852277661219067e-02  7.8502385266189550e-02  8.6010642690216910e-02  8.6259004590629559e-02  7.7087327578279574e-02  5.8735717932868380e-02  3.5062764354590804e-02  1.1423770152643918e-02  1.7506852075836306e-02  0.0000000000000000e+00  1.0473705152341628e-01  1.8298145525120185e-01  2.2397813347186504e-01  2.3038853216228941e-01  2.1249171114912963e-01  1.8212210744825943e-01  1.4878852534167009e-01  1.1835745602593797e-01  9.3465526306437036e-02  7.4609029882742942e-02  6.1201305475023185e-02  5.2307863033253313e-02  4.7045256367702043e-02  4.4740525593919472e-02  4.4953147987813594e-02  4.7429194184489536e-02  5.2020542102321238e-02  5.8580068032132046e-02  6.6832267782034424e-02  7.6228730540908576e-02  8.5805442952485184e-02  9.4106975714215890e-02  9.9234664582747920e-02  9.9127766903114103e-02  9.2091900667059717e-02  7.7500467770068776e-02  5.6544769830891982e-02  3.2654981647593291e-02  1.1138078755849372e-02  8.4427334470661194e-03  0.0000000000000000e+00  8.6110299723639150e-02  1.5594913820769651e-01  2.0220797701133839e-01  2.2450780017811117e-01  2.2707954220268181e-01  2.1612259816576071e-01  1.9774339727540644e-01  1.7680707780283203e-01  1.5659382872716957e-01  1.3896323052295284e-01  1.2473099000619443e-01  1.1405794395375615e-01  1.0675392692901281e-01  1.0247328971332968e-01  1.0081531586845867e-01  1.0135572596395208e-01  1.0363265665424141e