<?xml version="1.0"?>
<VTKFile type="UnstructuredGrid"  version="0.1"  >
<UnstructuredGrid>
<Piece  NumberOfPoints="961" NumberOfCells="1800">
<Points>
<DataArray  type="Float64"  NumberOfComponents="3"  format="ascii">-1 -1 0  -0.9333333333333333 -1 0  -0.8666666666666667 -1 0  -0.8 -1 0  -0.7333333333333334 -1 0  -0.6666666666666667 -1 0  -0.6 -1 0  -0.5333333333333333 -1 0  -0.4666666666666667 -1 0  -0.4 -1 0  -0.3333333333333334 -1 0  -0.2666666666666667 -1 0  -0.2 -1 0  -0.1333333333333333 -1 0  -0.06666666666666665 -1 0  0 -1 0  0.06666666666666665 -1 0  0.1333333333333333 -1 0  0.2 -1 0  0.2666666666666666 -1 0  0.3333333333333333 -1 0  0.3999999999999999 -1 0  0.4666666666666666 -1 0  0.5333333333333334 -1 0  0.6000000000000001 -1 0  0.6666666666666667 -1 0  0.7333333333333334 -1 0  0.8 -1 0  0.8666666666666667 -1 0  0.9333333333333333 -1 0  1 -1 0  -1 -0.9333333333333333 0  -0.9333333333333333 -0.9333333333333333 0  -0.8666666666666667 -0.9333333333333333 0  -0.8 -0.9333333333333333 0  -0.7333333333333334 -0.9333333333333333 0  -0.6666666666666667 -0.9333333333333333 0  -0.6 -0.9333333333333333 0  -0.5333333333333333 -0.9333333333333333 0  -0.4666666666666667 -0.9333333333333333 0  -0.4 -0.9333333333333333 0  -0.3333333333333334 -0.9333333333333333 0  -0.2666666666666667 -0.9333333333333333 0  -0.2 -0.9333333333333333 0  -0.1333333333333333 -0.9333333333333333 0  -0.06666666666666665 -0.9333333333333333 0  0 -0.9333333333333333 0  0.06666666666666665 -0.9333333333333333 0  0.1333333333333333 -0.9333333333333333 0  0.2 -0.9333333333333333 0  0.2666666666666666 -0.9333333333333333 0  0.3333333333333333 -0.9333333333333333 0  0.3999999999999999 -0.9333333333333333 0  0.4666666666666666 -0.9333333333333333 0  0.5333333333333334 -0.9333333333333333 0  0.6000000000000001 -0.9333333333333333 0  0.6666666666666667 -0.9333333333333333 0  0.7333333333333334 -0.9333333333333333 0  0.8 -0.9333333333333333 0  0.8666666666666667 -0.9333333333333333 0  0.9333333333333333 -0.9333333333333333 0  1 -0.9333333333333333 0  -1 -0.8666666666666667 0  -0.9333333333333333 -0.8666666666666667 0  -0.8666666666666667 -0.8666666666666667 0  -0.8 -0.8666666666666667 0  -0.7333333333333334 -0.8666666666666667 0  -0.6666666666666667 -0.8666666666666667 0  -0.6 -0.8666666666666667 0  -0.5333333333333333 -0.8666666666666667 0  -0.4666666666666667 -0.8666666666666667 0  -0.4 -0.8666666666666667 0  -0.3333333333333334 -0.8666666666666667 0  -0.2666666666666667 -0.8666666666666667 0  -0.2 -0.8666666666666667 0  -0.1333333333333333 -0.8666666666666667 0  -0.06666666666666665 -0.8666666666666667 0  0 -0.8666666666666667 0  0.06666666666666665 -0.8666666666666667 0  0.1333333333333333 -0.8666666666666667 0  0.2 -0.8666666666666667 0  0.2666666666666666 -0.8666666666666667 0  0.3333333333333333 -0.8666666666666667 0  0.3999999999999999 -0.8666666666666667 0  0.4666666666666666 -0.8666666666666667 0  0.5333333333333334 -0.8666666666666667 0  0.6000000000000001 -0.8666666666666667 0  0.6666666666666667 -0.8666666666666667 0  0.7333333333333334 -0.8666666666666667 0  0.8 -0.8666666666666667 0  0.8666666666666667 -0.8666666666666667 0  0.9333333333333333 -0.8666666666666667 0  1 -0.8666666666666667 0  -1 -0.8 0  -0.9333333333333333 -0.8 0  -0.8666666666666667 -0.8 0  -0.8 -0.8 0  -0.7333333333333334 -0.8 0  -0.6666666666666667 -0.8 0  -0.6 -0.8 0  -0.5333333333333333 -0.8 0  -0.4666666666666667 -0.8 0  -0.4 -0.8 0  -0.3333333333333334 -0.8 0  -0.2666666666666667 -0.8 0  -0.2 -0.8 0  -0.1333333333333333 -0.8 0  -0.06666666666666665 -0.8 0  0 -0.8 0  0.06666666666666665 -0.8 0  0.1333333333333333 -0.8 0  0.2 -0.8 0  0.2666666666666666 -0.8 0  0.3333333333333333 -0.8 0  0.3999999999999999 -0.8 0  0.4666666666666666 -0.8 0  0.5333333333333334 -0.8 0  0.6000000000000001 -0.8 0  0.6666666666666667 -0.8 0  0.7333333333333334 -0.8 0  0.8 -0.8 0  0.8666666666666667 -0.8 0  0.9333333333333333 -0.8 0  1 -0.8 0  -1 -0.7333333333333334 0  -0.9333333333333333 -0.7333333333333334 0  -0.8666666666666667 -0.7333333333333334 0  -0.8 -0.7333333333333334 0  -0.7333333333333334 -0.7333333333333334 0  -0.6666666666666667 -0.7333333333333334 0  -0.6 -0.7333333333333334 0  -0.5333333333333333 -0.7333333333333334 0  -0.4666666666666667 -0.7333333333333334 0  -0.4 -0.7333333333333334 0  -0.3333333333333334 -0.7333333333333334 0  -0.2666666666666667 -0.7333333333333334 0  -0.2 -0.7333333333333334 0  -0.1333333333333333 -0.7333333333333334 0  -0.06666666666666665 -0.7333333333333334 0  0 -0.7333333333333334 0  0.06666666666666665 -0.7333333333333334 0  0.1333333333333333 -0.7333333333333334 0  0.2 -0.7333333333333334 0  0.2666666666666666 -0.7333333333333334 0  0.3333333333333333 -0.7333333333333334 0  0.3999999999999999 -0.7333333333333334 0  0.4666666666666666 -0.7333333333333334 0  0.5333333333333334 -0.7333333333333334 0  0.6000000000000001 -0.7333333333333334 0  0.6666666666666667 -0.7333333333333334 0  0.7333333333333334 -0.7333333333333334 0  0.8 -0.7333333333333334 0  0.8666666666666667 -0.7333333333333334 0  0.9333333333333333 -0.7333333333333334 0  1 -0.7333333333333334 0  -1 -0.6666666666666667 0  -0.9333333333333333 -0.6666666666666667 0  -0.8666666666666667 -0.6666666666666667 0  -0.8 -0.6666666666666667 0  -0.7333333333333334 -0.6666666666666667 0  -0.6666666666666667 -0.6666666666666667 0  -0.6 -0.6666666666666667 0  -0.5333333333333333 -0.6666666666666667 0  -0.4666666666666667 -0.6666666666666667 0  -0.4 -0.6666666666666667 0  -0.3333333333333334 -0.6666666666666667 0  -0.2666666666666667 -0.6666666666666667 0  -0.2 -0.6666666666666667 0  -0.1333333333333333 -0.6666666666666667 0  -0.06666666666666665 -0.6666666666666667 0  0 -0.6666666666666667 0  0.06666666666666665 -0.6666666666666667 0  0.1333333333333333 -0.6666666666666667 0  0.2 -0.6666666666666667 0  0.2666666666666666 -0.6666666666666667 0  0.3333333333333333 -0.6666666666666667 0  0.3999999999999999 -0.6666666666666667 0  0.4666666666666666 -0.6666666666666667 0  0.5333333333333334 -0.6666666666666667 0  0.6000000000000001 -0.6666666666666667 0  0.6666666666666667 -0.6666666666666667 0  0.7333333333333334 -0.6666666666666667 0  0.8 -0.6666666666666667 0  0.8666666666666667 -0.6666666666666667 0  0.9333333333333333 -0.6666666666666667 0  1 -0.6666666666666667 0  -1 -0.6 0  -0.9333333333333333 -0.6 0  -0.8666666666666667 -0.6 0  -0.8 -0.6 0  -0.7333333333333334 -0.6 0  -0.6666666666666667 -0.6 0  -0.6 -0.6 0  -0.5333333333333333 -0.6 0  -0.4666666666666667 -0.6 0  -0.4 -0.6 0  -0.3333333333333334 -0.6 0  -0.2666666666666667 -0.6 0  -0.2 -0.6 0  -0.1333333333333333 -0.6 0  -0.06666666666666665 -0.6 0  0 -0.6 0  0.06666666666666665 -0.6 0  0.1333333333333333 -0.6 0  0.2 -0.6 0  0.2666666666666666 -0.6 0  0.3333333333333333 -0.6 0  0.3999999999999999 -0.6 0  0.4666666666666666 -0.6 0  0.5333333333333334 -0.6 0  0.6000000000000001 -0.6 0  0.6666666666666667 -0.6 0  0.7333333333333334 -0.6 0  0.8 -0.6 0  0.8666666666666667 -0.6 0  0.9333333333333333 -0.6 0  1 -0.6 0  -1 -0.5333333333333333 0  -0.9333333333333333 -0.5333333333333333 0  -0.8666666666666667 -0.5333333333333333 0  -0.8 -0.5333333333333333 0  -0.7333333333333334 -0.5333333333333333 0  -0.6666666666666667 -0.5333333333333333 0  -0.6 -0.5333333333333333 0  -0.5333333333333333 -0.5333333333333333 0  -0.4666666666666667 -0.5333333333333333 0  -0.4 -0.5333333333333333 0  -0.3333333333333334 -0.5333333333333333 0  -0.2666666666666667 -0.5333333333333333 0  -0.2 -0.5333333333333333 0  -0.1333333333333333 -0.5333333333333333 0  -0.06666666666666665 -0.5333333333333333 0  0 -0.5333333333333333 0  0.06666666666666665 -0.5333333333333333 0  0.1333333333333333 -0.5333333333333333 0  0.2 -0.5333333333333333 0  0.2666666666666666 -0.5333333333333333 0  0.3333333333333333 -0.5333333333333333 0  0.3999999999999999 -0.5333333333333333 0  0.4666666666666666 -0.5333333333333333 0  0.5333333333333334 -0.5333333333333333 0  0.6000000000000001 -0.5333333333333333 0  0.6666666666666667 -0.5333333333333333 0  0.7333333333333334 -0.5333333333333333 0  0.8 -0.5333333333333333 0  0.8666666666666667 -0.5333333333333333 0  0.9333333333333333 -0.5333333333333333 0  1 -0.5333333333333333 0  -1 -0.4666666666666667 0  -0.9333333333333333 -0.4666666666666667 0  -0.8666666666666667 -0.4666666666666667 0  -0.8 -0.4666666666666667 0  -0.7333333333333334 -0.4666666666666667 0  -0.6666666666666667 -0.4666666666666667 0  -0.6 -0.4666666666666667 0  -0.5333333333333333 -0.4666666666666667 0  -0.4666666666666667 -0.4666666666666667 0  -0.4 -0.4666666666666667 0  -0.3333333333333334 -0.4666666666666667 0  -0.2666666666666667 -0.4666666666666667 0  -0.2 -0.4666666666666667 0  -0.1333333333333333 -0.4666666666666667 0  -0.06666666666666665 -0.4666666666666667 0  0 -0.4666666666666667 0  0.06666666666666665 -0.4666666666666667 0  0.1333333333333333 -0.4666666666666667 0  0.2 -0.4666666666666667 0  0.2666666666666666 -0.4666666666666667 0  0.3333333333333333 -0.4666666666666667 0  0.3999999999999999 -0.4666666666666667 0  0.4666666666666666 -0.4666666666666667 0  0.5333333333333334 -0.4666666666666667 0  0.6000000000000001 -0.4666666666666667 0  0.6666666666666667 -0.4666666666666667 0  0.7333333333333334 -0.4666666666666667 0  0.8 -0.4666666666666667 0  0.8666666666666667 -0.4666666666666667 0  0.9333333333333333 -0.4666666666666667 0  1 -0.4666666666666667 0  -1 -0.4 0  -0.9333333333333333 -0.4 0  -0.8666666666666667 -0.4 0  -0.8 -0.4 0  -0.7333333333333334 -0.4 0  -0.6666666666666667 -0.4 0  -0.6 -0.4 0  -0.5333333333333333 -0.4 0  -0.4666666666666667 -0.4 0  -0.4 -0.4 0  -0.3333333333333334 -0.4 0  -0.2666666666666667 -0.4 0  -0.2 -0.4 0  -0.1333333333333333 -0.4 0  -0.06666666666666665 -0.4 0  0 -0.4 0  0.06666666666666665 -0.4 0  0.1333333333333333 -0.4 0  0.2 -0.4 0  0.2666666666666666 -0.4 0  0.3333333333333333 -0.4 0  0.3999999999999999 -0.4 0  0.4666666666666666 -0.4 0  0.5333333333333334 -0.4 0  0.6000000000000001 -0.4 0  0.6666666666666667 -0.4 0  0.7333333333333334 -0.4 0 
[...]
<PointData  Scalars="f_24"> 
<DataArray  type="Float64"  Name="f_24"  format="ascii">0.0000000000000000e+00  0.0000000000000000e+00  0.0000000000000000e+00  0.0000000000000000e+00  0.0000000000000000e+00  0.0000000000000000e+00  0.0000000000000000e+00  0.0000000000000000e+00  0.0000000000000000e+00  0.0000000000000000e+00  0.0000000000000000e+00  0.0000000000000000e+00  0.0000000000000000e+00  0.0000000000000000e+00  0.0000000000000000e+00  0.0000000000000000e+00  0.0000000000000000e+00  0.0000000000000000e+00  0.0000000000000000e+00  0.0000000000000000e+00  0.0000000000000000e+00  0.0000000000000000e+00  0.0000000000000000e+00  0.0000000000000000e+00  0.0000000000000000e+00  0.0000000000000000e+00  0.0000000000000000e+00  0.0000000000000000e+00  0.0000000000000000e+00  0.0000000000000000e+00  9.8020223069506667e+00  0.0000000000000000e+00  4.7860743320971316e-02  9.3130917292293863e-02  1.3586898095568251e-01  1.7647418094034442e-01  2.1535854924024733e-01  2.5294863468991874e-01  2.8969946392745050e-01  3.2610654897909408e-01  3.6271895343911048e-01  4.0015312984922430e-01  4.3910971285202233e-01  4.8039609605160211e-01  5.2495796252795834e-01  5.7392365410700152e-01  6.2866644313980025e-01  6.9089174130007402e-01  7.6275952182673601e-01  8.4705727481561044e-01  9.4744669345458521e-01  1.0688197296843138e+00  1.2178198217208307e+00  1.4036181012576867e+00  1.6390945269195341e+00  1.9426875301816988e+00  2.3414059390794844e+00  2.8759936567934576e+00  3.6105292105803257e+00  4.6516304338900367e+00  6.1953095704271366e+00  8.5589927645461419e+00  0.0000000000000000e+00  9.2405682715953147e-02  1.7420767509237620e-01  2.4223884892469913e-01  2.9563893939631641e-01  3.3490372185102107e-01  3.6143445022760862e-01  3.7711815001633608e-01  3.8400042554880331e-01  3.8406045295293101e-01  3.7907724577939317e-01  3.7057027423689826e-01  3.5979304237721077e-01  3.4776118738891382e-01  3.3530205362714677e-01  3.2311889918450248e-01  3.1186962165223064e-01  3.0226724803331767e-01  2.9521885980173829e-01  2.9203384258520898e-01  2.9475601628416753e-01  3.0671564678029123e-01  3.3347173904614252e-01  3.8445234678979523e-01  4.7586301473931181e-01  6.3596777152990780e-01  9.1505924017640450e-01  1.4053227004671287e+00  2.2857405595823432e+00  3.9355656590123620e+00  7.4381133618531718e+00  0.0000000000000000e+00  1.3171850933115345e-01  2.3706369775624136e-01  3.0708645715024341e-01  3.4159368642786808e-01  3.4593388426327237e-01  3.2800125508477296e-01  2.9590958603208034e-01  2.5662599657452229e-01  2.1541944281890399e-01  1.7585299023712112e-01  1.4005676535807438e-01  1.0909009462991918e-01  8.3284282069943733e-02  6.2518853459646959e-02  4.6422361576736119e-02  3.4508082888957285e-02  2.6262712974399728e-02  2.1209714759697615e-02  1.8974364463590632e-02  1.9392063788232067e-02  2.2737589063975331e-02  3.0235792069760008e-02  4.5195412134774647e-02  7.5498539931316042e-02  1.3902096855792292e-01  2.7541870688722786e-01  5.7261720874620936e-01  1.2283933543999244e+00  2.7275779897748462e+00  6.4311068355903327e+00  0.0000000000000000e+00  1.6477426308497739e-01  2.8036141225929562e-01  3.3288303446881734e-01  3.2975839217703667e-01  2.8934722256729600e-01  2.3138448912640605e-01  1.7136539672665943e-01  1.1881720404268860e-01  7.7990160010973336e-02  4.9493462606103072e-02  3.1921332039883205e-02  2.3061922170151617e-02  2.0633665993813149e-02  2.2647987244438398e-02  2.7529935434532079e-02  3.4104623974900411e-02  4.1520800307593871e-02  4.9151949487490500e-02  5.6495244469194288e-02  6.3080486360515955e-02  6.8408961552413286e-02  7.1984231471641763e-02  7.3633416663457699e-02  7.4702298551885801e-02  8.1728991311834628e-02  1.1682355303315441e-01  2.4521486611484578e-01  6.5113054666065795e-01  1.8484568820679208e+00  5.5299863527667759e+00  0.0000000000000000e+00  1.9123531680336961e-01  3.0603895555009530e-01  3.2970848746963727e-01  2.8598822296359966e-01  2.1172752806521589e-01  1.3726713741478788e-01  7.9155622839039874e-02  4.1769419754873166e-02  2.2289256046903041e-02  1.5277948286732079e-02  1.5490439263775149e-02  1.9041484577604254e-02  2.3554295745291786e-02  2.7859787383897924e-02  3.1596446359276088e-02  3.4866550067535786e-02  3.7988063924315064e-02  4.1327917405266701e-02  4.5185736027860100e-02  4.9697536604689757e-02  5.4735075901378390e-02  5.9786889522771267e-02  6.3842840407340271e-02  6.5500935010383482e-02  6.4321866627172986e-02  6.7190079062830893e-02  1.1217551023406902e-01  3.4438977479673255e-01  1.2731300254105316e+00  4.7270555106822281e+00  0.0000000000000000e+00  2.1129732072474525e-01  3.1769655831947319e-01  3.0912506395534983e-01  2.3218306880595177e-01  1.4179429918406017e-01  7.1696742195138177e-02  3.0987726976498191e-02  1.3945310438065881e-02  1.0618454335181883e-02  1.2863663477026157e-02  1.6022977690014761e-02  1.8303432053921050e-02  1.9567575404011387e-02  2.0358619439482500e-02  2.1344888739436102e-02  2.3091299473860013e-02  2.6013185122634643e-02  3.0399112065554696e-02  3.6432047933112333e-02  4.4168622257571774e-02  5.3455586587276276e-02  6.3774326772882986e-02  7.4005375300754114e-02  8.2086434914606168e-02  8.4810218453800643e-02  8.0019503097222736e-02  8.1841181295881749e-02  1.9180650000856606e-01  8.6229940046961739e-01  4.0149083369269940e+00  0.0000000000000000e+00  2.2551569170876315e-01  3.1931413375355050e-01  2.8072473027725042e-01  1.8160877830675090e-01  8.9837240915384517e-02  3.4244903334359651e-02  1.1760579144233806e-02  7.7574122595589117e-03  9.8909904803018336e-03  1.2012863895489749e-02  1.2605707412184091e-02  1.2184200755351126e-02  1.1607679004094346e-02  1.1448916448314786e-02  1.1961473923258192e-02  1.3243977546815404e-02  1.5401777799562906e-02  1.8645213549503502e-02  2.3317659488351027e-02  2.9848523765066488e-02  3.8612302676237872e-02  4.9675983361259266e-02  6.2440548255056336e-02  7.5202258062172594e-02  8.4485581541042284e-02  8.4564437269076836e-02  7.4465833625152439e-02  1.1153903772382313e-01  5.7983587807619907e-01  3.3864292893819519e+00  0.0000000000000000e+00  2.3463929447750001e-01  3.1447332874094863e-01  2.5106761537938788e-01  1.4003416571885399e-01  5.5436688699485030e-02  1.5686480677879134e-02  5.8694306971070294e-03  7.0222238752299148e-03  8.8313945349386830e-03  8.8068333490686299e-03  7.7136751668661248e-03  6.5823776030497294e-03  5.8580017169950621e-03  5.5745937678245315e-03  5.6790447661636129e-03  6.2120763328315162e-03  7.3642370506393703e-03  9.4868914637086330e-03  1.3100808432161788e-02  1.8889193690360410e-02  2.7611232947015545e-02  3.9838262077114661e-02  5.5459838044751103e-02  7.3021663929421277e-02  8.9065457039005522e-02  9.6912101129834283e-02  8.7307398714435436e-02  8.3704928843041787e-02  3.8695050037722228e-01  2.8347932562185632e+00  0.0000000000000000e+00  2.3947734251598068e-01  3.0601947551276626e-01  2.2397010331601530e-01  1.0858163337211914e-01  3.4307041464777380e-02  7.4238207623717172e-03  4.4666103660349525e-03  6.3981985966348638e-03  6.6476985909502450e-03  5.4403571465719246e-03  4.1037895497554027e-03  3.1670687841297519e-03  2.5868811807851131e-03  2.2403130170898329e-03  2.1053131543344573e-03  2.2474902938773131e-03  2.7960185938240038e-03  3.9787931380316569e-03  6.2125265560231888e-03  1.0209182536708029e-02  1.7015469298643188e-02  2.7835046464476973e-02  4.3428979043769758e-02  6.3107225851488327e-02  8.3617918470368077e-02  9.8309340434688877e-02  9.4819365818436155e-02  7.2852751190590828e-02  2.5225041607677046e-01  2.3534655558988544e+00  0.0000000000000000e+00  2.4080756118252980e-01  2.9601135583957028e-01  2.0126549123317997e-01  8.6187097931629542e-02  2.1975201224201258e-02  3.9841584535763421e-03  4.0053079647812857e-03  5.2448721420576185e-03  4.4617499150922633e-03  3.0686293939474474e-03  2.0326030197746810e-03  1.3876029522452724e-03  9.6322225756148951e-04  6.9375062143066108e-04  5.7493291892128716e-04  6.0759915572573060e-04  8.2141145502661315e-04  1.3476985081408207e-03  2.5260024248919700e-03  5.0513427508482095e-03  1.0124081528017548e-02  1.9427402914315377e-02  3.4620691605053905e-02  5.5981219785030664e-02  8.0723855571954911e-02  1.0170458853668109e-01  1.0610675575263621e-01  7.8212822152402800e-02  1.6755181191944998e-01  1.9362019371754413e+00  0.0000000000000000e+00  2.3932406109670953e-01  2.8581630035895844e-01  1.8355627887014347e-01  7.1130474728740137e-02  1.5069294749827933e-02  2.5357004338469919e-03  3.5186376856011247e-03  3.9832368717900874e-03  2.8397291008752049e-03  1.6792241531737222e-03  9.7567953167785736e-04  5.5450167256646552e-04  2.8973493730800968e-04  1.5016923124024770e-04  1.0013828675140392e-04  1.0105663466988508e-04  1.5182166377319720e-04  3.2348251998438275e-04  8.2994649194276823e-04  2.1977819908604703e-03  5.5383192062387699e-03  1.2761607967448586e-02  2.6264650777803371e-02  4.7582760212484143e-02  7.4687206322505723e-02  1.0043645658652078e-01  1.1109443918261208e-01  8.5266826678139257e-02  1.0907165921526882e-01  1.5770485790915032e+00  0.0000000000000000e+00  2.3561233652324270e-01  2.7625523043126332e-01  1.7077935821166346e-01  6.1791458555282799e-02  1.1429802294205510e-02  1.8266018364852157e-03  2.9245212598764734e-03  2.9259639159296431e-03  1.8047102091794901e-03  9.3565079519323450e-04  4.7124789311556587e-04  2.0717555138182822e-04  6.6767125415785240e-05  1.5321443650997102e-05  3.2856230996574822e-06  -5.2433442198772261e-07  2.2774212642414663e-06  3.6932074269703836e-05  2.0723871210359069e-04  8.7067311257991845e-04  2.9877067693580158e-03  8.5274502250211881e-03  2.0469218871588889e-02  4.1424746141275719e-02  7.0682969973996881e-02  1.0052957051395328e-01  1.1742819077705914e-01  9.5691206115534611e-02  7.7670451759801681e-02  1.2703420909808063e+00  0.0000000000000000e+00  2.3014691522656724e-01  2.6774427133218487e-01  1.6256920059820337e-01  5.6930649278502700e-02  9.8364193565724685e-03  1.3881302371124297e-03  2.3140114626818702e-03  2.1535769011003293e-03  1.1952635031925423e-03  5.5396866878096589e-04  2.4187743537414775e-04  7.9134708090546923e-05  1.0299181232189575e-05  -3.7198156649316566e-06  -3.7154135009791873e-06  -4.8402105358359881e-06  -8.0723251103308430e-06  -1.2934745989123380e-05  1.6003178961744501e-05  2.9430856234602572e-04  1.5823356343969504e-03  5.7696243474473774e-03  1.6129259655353112e-02  3.6277368444767352e-02  6.6499919235975286e-02  9.9678850251986001e-02  1.2025373129674712e-01  1.0448725054636097e-01  5.7393747942939159e-02  1.0107095124676873e+00  0.0000000000000000e+00  2.2329588450062776e-01  2.6041083120651648e-01  1.5845875110840221e-01  5.5734396680450250e-02  9.7112745025884351e-03  1.0989456203369385e-03  1.7471950250278498e-03  1.6237354662963371e-03  8.5305278727101496e-04  3.6236248222731073e-04  1.4156863341837728e-04  3.7599224462632641e-05  8.3529054995126775e-07  -2.8924240990673699e-06  -1.0768007682793318e-06  -4.4952483807140905e-07  -1.2513485974660144e-06  -9.3225204518167514e-06  -2.2948305483708362e-05  7.4787516175091074e-05  8.8528971009381788e-04  4.1778595233437745e-03  1.3466327393104067e-02  3.2983498757989317e-02  6.4257319723385400e-02  9.9998463798404491e-02  1.2427881698241597e-01  1.1269027322203949e-01  5.0603058124774426e-02  7.9306831346706042e-01  0.0000000000000000e+00  2.1533603662745140e-01  2.5418078710581338e-01  1.5797221255793259e-01  5.7764250297646647e-02  1.0911279033956984e-02  1.0010837701781279e-03  1.2362685969255854e-03  1.2573868672489576e-03  6.6938850126264287e-04  2.7071571163088154e-04  9.9757636639551800e-05  2.6918825341141871e-05  1.9053355332311752e-06  -1.2617838206098119e-06  -3.5108973177926738e-07  3.4432892732284834e-07  1.4991214809296292e-06  -2.4483780098576800e-06  -2.5523271808245121e-05  -6.7918217585112304e-06  5.4893155191986474e-04  3.3491516111434599e-03  1.1992052339862636e-02  3.1281546607715857e-02  6.3156892301382495e-02  1.0109847574769150e-01  1.2695376782626577e-01  1.1916224274420772e-01  4.7730191691998415e-02  6.1262639418441667e-01  0.0000000000000000e+00  2.0646493646799899e-01  2.4883496048624290e-01  1.6064586664553454e-01  6.2873843955769892e-02  1.3615460236970000e-02  1.2599261503862904e-03  7.8135454460207389e-04  9.7292355090596895e-04  5.7547873239026685e-04  2.3644274640511028e-04  8.5736330190741591e-05  2.6889831041238771e-05  5.6532752932682882e-06  5.5724907219836417e-07  -1.5007093134492255e-07  2.4918316866183869e-08  2.3355545550422196e-06  1.0986624713879422e-06  -2.5155291292783286e-05  -3.9268044515786061e-05  4.3244043683868846e-04  3.0989817285937793e-03  1.1727618436220633e-02  3.1285027411500056e-02  6.4159630049032149e-02  1.0345588925814303e-01  1.3070869662832463e-01  1.2423236267772889e-01  5.0480658573342600e-02  4.6488208511582324e-01  0.0000000000000000e+00  1.9681495532410392e-01  2.4405085544813176e-01  1.6600783711285891e-01  7.1120248992418686e-02  1.8279280228788511e-02  2.2097733024578166e-03  4.2999265888910633e-04  6.9645816504311346e-04  5.1745330956928142e-04  2.4009675187074134e-04  9.0510474214808615e-05  3.1708535379084898e-05  1.0237749839681944e-05  2.9130756191373441e-06  5.5680448666853831e-07  6.6889696690928486e-07  4.1895852264902373e-06  1.6162010605982893e-06  -3.3615171473485465e-05  -5.1713522400605438e-05  4.7924077443785209e-04  3.4191644357128852e-03  1.2633998718475644e-02  3.3208176243705548e-02  6.7053544702152176e-02  1.0732389253403044e-01  1.3419458148327415e-01  1.2798791602023005e-01  5.3715368545836674e-02  3.4562414704792349e-01  0.0000000000000000e+00  1.8646998191606362e-01  2.3941897392899419e-01  1.7353067439965605e-01  8.2653966068184218e-02  2.5616445789878546e-02  4.4528898896349436e-03  3.8034536389642084e-04  3.8777123064773602e-04  4.3172425829009198e-04  2.6045040762369566e-04  1.1583010125761711e-04  4.5489808515225843e-05  1.7459260011284093e-05  6.7925909108485206e-06  3.4728784591449491e-06  4.6064526444562886e-06  7.5151613077205845e-06  -5.7421000961423540e-06  -5.6723946510633372e-05  -3.4399735391014679e-05  7.7423159109327731e-04  4.4633929827467157e-03  1.5063500916577816e-02  3.7279080652439872e-02  7.2419440409918476e-02  1.1263287043184575e-01  1.3837883640090110e-01  1.3035970565490798e-01  5.8281998737096920e-02  2.5093177105793713e-01  0.0000000000000000e+00  1.7546377841467869e-01  2.3446503646740083e-01  1.8256600603121123e-01  9.7592936959427098e-02  3.6562837674831129e-02  8.9950321559917994e-03  1.1666487148323775e-03  1.4516702956632064e-04  2.5220560759607781e-04  2.4199303210027412e-04  1.4898367377756301e-04  7.5510914292670843e-05  3.6766126953973016e-05  1.9701934169115323e-05  1.3952802726082384e-05  1.2227229398628670e-05  3.0990913776221144e-06  -3.5655214372542121e-05  -8.6284567358654323e-05  1.1491907905584836e-04  1.5739787833240937e-03  6.7171154413814584e-03  1.9528453659107440e-02  4.4084707707618971e-02  8.0290715625484205e-02  1.1956749499758519e-01  1.4243458968831474e-01  1.3156424517965762e-01  6.1750024179287967e-02  1.7717457851366020e-01  0.0000000000000000e+00  1.6381446930454488e-01  2.2864869400488022e-01  1.9227966660150955e-01  1.1583566602165943e-01  5.2156569584756195e-02  1.7350191610334825e-02  3.9438472868075494e-03  4.7933273011370854e-04  4.8394650838901312e-05  1.0556822118778593e-04  1.1890034354544164e-04  8.8740467270729875e-05  5.6913069896000529e-05  3.5228710556427528e-05  1.9829566271187309e-05  -2.6737010693579983e-07  -3.8384465393026604e-05  -8.6918676206302633e-05  -7.1633555211961421e-06  7.3243389263868205e-04  3.5304383209618581e-03  1.1048855297216092e-02  2.6988200180105393e-02  5.4172941990157014e-02  9.0982945967632733e-02  1.2774591620631129e-01  1.4641071411803697e-01  1.3132949864349258e-01  6.4430419140818262e-02  1.2101262107346508e-01  0.0000000000000000e+00  1.5148509845853975e-01  2.2138332574498445e-01  2.0157307401630475e-01  1.3684279786976788e-01  7.3269855743938531e-02  3.1511185282482972e-02  1.0811962616425103e-02  2.8354460508292351e-03  4.8869838355782578e-04  1.3768066999257214e-05  -2.0384671797850429e-05  -4.6757998853690951e-06  -3.6815636199010845e-06  -1.6350738001476117e-05  -3.9342918608727222e-05  -6.9581495582931690e-05  -7.9109750264962913e-05  5.3266889226556058e-05  7.0117056265266435e-04  2.7582165952424725e-03  7.9587910779259519e-03  1.8954813706529905e-02  3.8632665378768340e-02  6.8223737964441089e-02  1.0430648839537995e-01  1.3680145823189852e-01  1.4951263407154766e-01  1.2963378296646894e-01  6.5364715021029335e-02  7.9396380686300450e-02  0.0000000000000000e+00  1.3846611420093916e-01  2.1204192027627775e-01  2.0905564288655157e-01  1.5935821721376633e-01  1.0011512813616104e-01  5.3554815429611692e-02  2.4906227784116775e-02  1.0232962724836656e-02  3.7695383162273896e-03  1.2625599996776281e-03  3.8642658226094989e-04  1.0302302160513149e-04  1.7260570339709333e-05  1.5211604627746759e-06  3.5069127079375098e-05  1.6413614178716011e-04  5.3289809909101628e-04  1.4746508215549075e-03  3.6664788876337221e-03  8.3034610610369149e-03  1.7194770960623561e-02  3.2484310208753100e-02  5.5790351006973979e-02  8.6470899592395775e-02  1.1975383573804685e-01  1.4573517677559703e-01  1.5113010235120358e-01  1.2609135935449559e-01  6.4655994804109204e-02  4.9566769591691304e-02  0.0000000000000000e+00  1.2465911366400449e-01  1.9997191308118986e-01  2.1299624388747260e-01  1.8115310447232602e-01  1.3153592816440929e-01  8.4691002713125851e-02  4.9769207742206008e-02  2.7442888381856850e-02  1.4647951931685482e-02  7.8634296944093390e-03  4.4527197059335234e-03  2.8132032574076232e-03  2.0989426208154302e-03  1.9254564706458668e-03  2.1827047656706438e-03  2.9575761748186513e-03  4.5364810114840613e-03  7.4596251976014188e-03  1.2589790748102153e-02  2.1131166229059209e-02  3.4486918182812111e-02  5.3811306401960780e-02  7.9161496240657644e-02  1.0833538564122526e-01  1.3589308748958154e-01  1.5318595812622629e-01  1.5022644762415810e-01  1.2043145362638046e-01  6.2049819437806207e-02  2.9055130319738928e-02  0.0000000000000000e+00  1.1005944969594837e-01  1.8455203764172315e-01  2.1143717509816504e-01  1.9887627632628385e-01  1.6420084978334315e-01  1.2362888743412084e-01  8.7359151541109695e-02  5.9469241745226144e-02  4.0046237501827141e-02  2.7428318585240068e-02  1.9662436418070778e-02  1.5159377473923137e-02  1.2849740010673493e-02  1.2128440741853591e-02  1.2755808900477675e-02  1.4783153270180436e-02  1.8512000613660911e-02  2.4468233854603172e-02  3.3354781191196024e-02  4.5929328191080906e-02  6.2756553200953927e-02  8.3771721113956352e-02  1.0772527171152134e-01  1.3156681801458717e-01  1.5025625342183835e-01  1.5715195194870141e-01  1.4573327164128763e-01  1.1223485126606078e-01  5.7635875708530654e-02  1.5683235691121053e-02  0.0000000000000000e+00  9.4498140908505140e-02  1.6515783915344159e-01  2.0222795465120974e-01  2.0809640532886456e-01  1.9202611869375213e-01  1.6469739046110854e-01  1.3469144288510748e-01  1.0730379010798899e-01  8.4917111550081248e-02  6.7986509474520535e-02  5.5995053947363989e-02  4.8119524507469071e-02  4.3595145745954716e-02  4.1868057660407819e-02  4.2628569016660414e-02  4.5788539604429628e-02  5.1431485427591947e-02  5.9740659846703417e-02  7.0893232249332111e-02  8.4908442931344488e-02  1.0143347072105449e-01  1.1948871002829126e-01  1.3720911417544690e-01  1.5169241605279438e-01  1.5912214170136849e-01  1.5523899049328227e-01  1.3646410771854051e-01  1.0116320283537997e-01  5.1456974645824008e-02  7.5632888170915572e-03  0.0000000000000000e+00  7.8010566499295816e-02  1.4136888936670214e-01  1.8345170375729569e-01  2.0387588377363847e-01  2.0644899937232405e-01  1.9677110392997210e-01  1.8037092121278361e-01  1.6166185097462696e-01  1.4363051424330625e-01  1.2798640088922580e-01  1.1550551411957763e-01  1.0638631062549905e-01  1.0052978334253931e-01  9.7722488027030471e-02  9.7733839391818095e-02  1.0034978338799889e-01  1.0536104625575576e-01  1.1251894861468355e-01  1.2146665466318980e-01  1.3165077796687619e-01  1.4222687817750401e-01  1.519