<?xml version="1.0"?>
<VTKFile type="UnstructuredGrid"  version="0.1"  >
<UnstructuredGrid>
<Piece  NumberOfPoints="961" NumberOfCells="1800">
<Points>
<DataArray  type="Float64"  NumberOfComponents="3"  format="ascii">-1 -1 0  -0.9333333333333333 -1 0  -0.8666666666666667 -1 0  -0.8 -1 0  -0.7333333333333334 -1 0  -0.6666666666666667 -1 0  -0.6 -1 0  -0.5333333333333333 -1 0  -0.4666666666666667 -1 0  -0.4 -1 0  -0.3333333333333334 -1 0  -0.2666666666666667 -1 0  -0.2 -1 0  -0.1333333333333333 -1 0  -0.06666666666666665 -1 0  0 -1 0  0.06666666666666665 -1 0  0.1333333333333333 -1 0  0.2 -1 0  0.2666666666666666 -1 0  0.3333333333333333 -1 0  0.3999999999999999 -1 0  0.4666666666666666 -1 0  0.5333333333333334 -1 0  0.6000000000000001 -1 0  0.6666666666666667 -1 0  0.7333333333333334 -1 0  0.8 -1 0  0.8666666666666667 -1 0  0.9333333333333333 -1 0  1 -1 0  -1 -0.9333333333333333 0  -0.9333333333333333 -0.9333333333333333 0  -0.8666666666666667 -0.9333333333333333 0  -0.8 -0.9333333333333333 0  -0.7333333333333334 -0.9333333333333333 0  -0.6666666666666667 -0.9333333333333333 0  -0.6 -0.9333333333333333 0  -0.5333333333333333 -0.9333333333333333 0  -0.4666666666666667 -0.9333333333333333 0  -0.4 -0.9333333333333333 0  -0.3333333333333334 -0.9333333333333333 0  -0.2666666666666667 -0.9333333333333333 0  -0.2 -0.9333333333333333 0  -0.1333333333333333 -0.9333333333333333 0  -0.06666666666666665 -0.9333333333333333 0  0 -0.9333333333333333 0  0.06666666666666665 -0.9333333333333333 0  0.1333333333333333 -0.9333333333333333 0  0.2 -0.9333333333333333 0  0.2666666666666666 -0.9333333333333333 0  0.3333333333333333 -0.9333333333333333 0  0.3999999999999999 -0.9333333333333333 0  0.4666666666666666 -0.9333333333333333 0  0.5333333333333334 -0.9333333333333333 0  0.6000000000000001 -0.9333333333333333 0  0.6666666666666667 -0.9333333333333333 0  0.7333333333333334 -0.9333333333333333 0  0.8 -0.9333333333333333 0  0.8666666666666667 -0.9333333333333333 0  0.9333333333333333 -0.9333333333333333 0  1 -0.9333333333333333 0  -1 -0.8666666666666667 0  -0.9333333333333333 -0.8666666666666667 0  -0.8666666666666667 -0.8666666666666667 0  -0.8 -0.8666666666666667 0  -0.7333333333333334 -0.8666666666666667 0  -0.6666666666666667 -0.8666666666666667 0  -0.6 -0.8666666666666667 0  -0.5333333333333333 -0.8666666666666667 0  -0.4666666666666667 -0.8666666666666667 0  -0.4 -0.8666666666666667 0  -0.3333333333333334 -0.8666666666666667 0  -0.2666666666666667 -0.8666666666666667 0  -0.2 -0.8666666666666667 0  -0.1333333333333333 -0.8666666666666667 0  -0.06666666666666665 -0.8666666666666667 0  0 -0.8666666666666667 0  0.06666666666666665 -0.8666666666666667 0  0.1333333333333333 -0.8666666666666667 0  0.2 -0.8666666666666667 0  0.2666666666666666 -0.8666666666666667 0  0.3333333333333333 -0.8666666666666667 0  0.3999999999999999 -0.8666666666666667 0  0.4666666666666666 -0.8666666666666667 0  0.5333333333333334 -0.8666666666666667 0  0.6000000000000001 -0.8666666666666667 0  0.6666666666666667 -0.8666666666666667 0  0.7333333333333334 -0.8666666666666667 0  0.8 -0.8666666666666667 0  0.8666666666666667 -0.8666666666666667 0  0.9333333333333333 -0.8666666666666667 0  1 -0.8666666666666667 0  -1 -0.8 0  -0.9333333333333333 -0.8 0  -0.8666666666666667 -0.8 0  -0.8 -0.8 0  -0.7333333333333334 -0.8 0  -0.6666666666666667 -0.8 0  -0.6 -0.8 0  -0.5333333333333333 -0.8 0  -0.4666666666666667 -0.8 0  -0.4 -0.8 0  -0.3333333333333334 -0.8 0  -0.2666666666666667 -0.8 0  -0.2 -0.8 0  -0.1333333333333333 -0.8 0  -0.06666666666666665 -0.8 0  0 -0.8 0  0.06666666666666665 -0.8 0  0.1333333333333333 -0.8 0  0.2 -0.8 0  0.2666666666666666 -0.8 0  0.3333333333333333 -0.8 0  0.3999999999999999 -0.8 0  0.4666666666666666 -0.8 0  0.5333333333333334 -0.8 0  0.6000000000000001 -0.8 0  0.6666666666666667 -0.8 0  0.7333333333333334 -0.8 0  0.8 -0.8 0  0.8666666666666667 -0.8 0  0.9333333333333333 -0.8 0  1 -0.8 0  -1 -0.7333333333333334 0  -0.9333333333333333 -0.7333333333333334 0  -0.8666666666666667 -0.7333333333333334 0  -0.8 -0.7333333333333334 0  -0.7333333333333334 -0.7333333333333334 0  -0.6666666666666667 -0.7333333333333334 0  -0.6 -0.7333333333333334 0  -0.5333333333333333 -0.7333333333333334 0  -0.4666666666666667 -0.7333333333333334 0  -0.4 -0.7333333333333334 0  -0.3333333333333334 -0.7333333333333334 0  -0.2666666666666667 -0.7333333333333334 0  -0.2 -0.7333333333333334 0  -0.1333333333333333 -0.7333333333333334 0  -0.06666666666666665 -0.7333333333333334 0  0 -0.7333333333333334 0  0.06666666666666665 -0.7333333333333334 0  0.1333333333333333 -0.7333333333333334 0  0.2 -0.7333333333333334 0  0.2666666666666666 -0.7333333333333334 0  0.3333333333333333 -0.7333333333333334 0  0.3999999999999999 -0.7333333333333334 0  0.4666666666666666 -0.7333333333333334 0  0.5333333333333334 -0.7333333333333334 0  0.6000000000000001 -0.7333333333333334 0  0.6666666666666667 -0.7333333333333334 0  0.7333333333333334 -0.7333333333333334 0  0.8 -0.7333333333333334 0  0.8666666666666667 -0.7333333333333334 0  0.9333333333333333 -0.7333333333333334 0  1 -0.7333333333333334 0  -1 -0.6666666666666667 0  -0.9333333333333333 -0.6666666666666667 0  -0.8666666666666667 -0.6666666666666667 0  -0.8 -0.6666666666666667 0  -0.7333333333333334 -0.6666666666666667 0  -0.6666666666666667 -0.6666666666666667 0  -0.6 -0.6666666666666667 0  -0.5333333333333333 -0.6666666666666667 0  -0.4666666666666667 -0.6666666666666667 0  -0.4 -0.6666666666666667 0  -0.3333333333333334 -0.6666666666666667 0  -0.2666666666666667 -0.6666666666666667 0  -0.2 -0.6666666666666667 0  -0.1333333333333333 -0.6666666666666667 0  -0.06666666666666665 -0.6666666666666667 0  0 -0.6666666666666667 0  0.06666666666666665 -0.6666666666666667 0  0.1333333333333333 -0.6666666666666667 0  0.2 -0.6666666666666667 0  0.2666666666666666 -0.6666666666666667 0  0.3333333333333333 -0.6666666666666667 0  0.3999999999999999 -0.6666666666666667 0  0.4666666666666666 -0.6666666666666667 0  0.5333333333333334 -0.6666666666666667 0  0.6000000000000001 -0.6666666666666667 0  0.6666666666666667 -0.6666666666666667 0  0.7333333333333334 -0.6666666666666667 0  0.8 -0.6666666666666667 0  0.8666666666666667 -0.6666666666666667 0  0.9333333333333333 -0.6666666666666667 0  1 -0.6666666666666667 0  -1 -0.6 0  -0.9333333333333333 -0.6 0  -0.8666666666666667 -0.6 0  -0.8 -0.6 0  -0.7333333333333334 -0.6 0  -0.6666666666666667 -0.6 0  -0.6 -0.6 0  -0.5333333333333333 -0.6 0  -0.4666666666666667 -0.6 0  -0.4 -0.6 0  -0.3333333333333334 -0.6 0  -0.2666666666666667 -0.6 0  -0.2 -0.6 0  -0.1333333333333333 -0.6 0  -0.06666666666666665 -0.6 0  0 -0.6 0  0.06666666666666665 -0.6 0  0.1333333333333333 -0.6 0  0.2 -0.6 0  0.2666666666666666 -0.6 0  0.3333333333333333 -0.6 0  0.3999999999999999 -0.6 0  0.4666666666666666 -0.6 0  0.5333333333333334 -0.6 0  0.6000000000000001 -0.6 0  0.6666666666666667 -0.6 0  0.7333333333333334 -0.6 0  0.8 -0.6 0  0.8666666666666667 -0.6 0  0.9333333333333333 -0.6 0  1 -0.6 0  -1 -0.5333333333333333 0  -0.9333333333333333 -0.5333333333333333 0  -0.8666666666666667 -0.5333333333333333 0  -0.8 -0.5333333333333333 0  -0.7333333333333334 -0.5333333333333333 0  -0.6666666666666667 -0.5333333333333333 0  -0.6 -0.5333333333333333 0  -0.5333333333333333 -0.5333333333333333 0  -0.4666666666666667 -0.5333333333333333 0  -0.4 -0.5333333333333333 0  -0.3333333333333334 -0.5333333333333333 0  -0.2666666666666667 -0.5333333333333333 0  -0.2 -0.5333333333333333 0  -0.1333333333333333 -0.5333333333333333 0  -0.06666666666666665 -0.5333333333333333 0  0 -0.5333333333333333 0  0.06666666666666665 -0.5333333333333333 0  0.1333333333333333 -0.5333333333333333 0  0.2 -0.5333333333333333 0  0.2666666666666666 -0.5333333333333333 0  0.3333333333333333 -0.5333333333333333 0  0.3999999999999999 -0.5333333333333333 0  0.4666666666666666 -0.5333333333333333 0  0.5333333333333334 -0.5333333333333333 0  0.6000000000000001 -0.5333333333333333 0  0.6666666666666667 -0.5333333333333333 0  0.7333333333333334 -0.5333333333333333 0  0.8 -0.5333333333333333 0  0.8666666666666667 -0.5333333333333333 0  0.9333333333333333 -0.5333333333333333 0  1 -0.5333333333333333 0  -1 -0.4666666666666667 0  -0.9333333333333333 -0.4666666666666667 0  -0.8666666666666667 -0.4666666666666667 0  -0.8 -0.4666666666666667 0  -0.7333333333333334 -0.4666666666666667 0  -0.6666666666666667 -0.4666666666666667 0  -0.6 -0.4666666666666667 0  -0.5333333333333333 -0.4666666666666667 0  -0.4666666666666667 -0.4666666666666667 0  -0.4 -0.4666666666666667 0  -0.3333333333333334 -0.4666666666666667 0  -0.2666666666666667 -0.4666666666666667 0  -0.2 -0.4666666666666667 0  -0.1333333333333333 -0.4666666666666667 0  -0.06666666666666665 -0.4666666666666667 0  0 -0.4666666666666667 0  0.06666666666666665 -0.4666666666666667 0  0.1333333333333333 -0.4666666666666667 0  0.2 -0.4666666666666667 0  0.2666666666666666 -0.4666666666666667 0  0.3333333333333333 -0.4666666666666667 0  0.3999999999999999 -0.4666666666666667 0  0.4666666666666666 -0.4666666666666667 0  0.5333333333333334 -0.4666666666666667 0  0.6000000000000001 -0.4666666666666667 0  0.6666666666666667 -0.4666666666666667 0  0.7333333333333334 -0.4666666666666667 0  0.8 -0.4666666666666667 0  0.8666666666666667 -0.4666666666666667 0  0.9333333333333333 -0.4666666666666667 0  1 -0.4666666666666667 0  -1 -0.4 0  -0.9333333333333333 -0.4 0  -0.8666666666666667 -0.4 0  -0.8 -0.4 0  -0.7333333333333334 -0.4 0  -0.6666666666666667 -0.4 0  -0.6 -0.4 0  -0.5333333333333333 -0.4 0  -0.4666666666666667 -0.4 0  -0.4 -0.4 0  -0.3333333333333334 -0.4 0  -0.2666666666666667 -0.4 0  -0.2 -0.4 0  -0.1333333333333333 -0.4 0  -0.06666666666666665 -0.4 0  0 -0.4 0  0.06666666666666665 -0.4 0  0.1333333333333333 -0.4 0  0.2 -0.4 0  0.2666666666666666 -0.4 0  0.3333333333333333 -0.4 0  0.3999999999999999 -0.4 0  0.4666666666666666 -0.4 0  0.5333333333333334 -0.4 0  0.6000000000000001 -0.4 0  0.6666666666666667 -0.4 0  0.7333333333333334 -0.4 0 
[...]
<PointData  Scalars="f_24"> 
<DataArray  type="Float64"  Name="f_24"  format="ascii">0.0000000000000000e+00  0.0000000000000000e+00  0.0000000000000000e+00  0.0000000000000000e+00  0.0000000000000000e+00  0.0000000000000000e+00  0.0000000000000000e+00  0.0000000000000000e+00  0.0000000000000000e+00  0.0000000000000000e+00  0.0000000000000000e+00  0.0000000000000000e+00  0.0000000000000000e+00  0.0000000000000000e+00  0.0000000000000000e+00  0.0000000000000000e+00  0.0000000000000000e+00  0.0000000000000000e+00  0.0000000000000000e+00  0.0000000000000000e+00  0.0000000000000000e+00  0.0000000000000000e+00  0.0000000000000000e+00  0.0000000000000000e+00  0.0000000000000000e+00  0.0000000000000000e+00  0.0000000000000000e+00  0.0000000000000000e+00  0.0000000000000000e+00  0.0000000000000000e+00  1.1676621988304912e+01  0.0000000000000000e+00  5.6821706925368878e-02  1.1058615543924792e-01  1.6112731382593101e-01  2.0896559802126793e-01  2.5461900442613405e-01  2.9861354591135414e-01  3.4150899951554076e-01  3.8391336159771816e-01  4.2649887526502689e-01  4.7001888963803640e-01  5.1532806695370403e-01  5.6340945898777584e-01  6.1541220399749452e-01  6.7270444833458742e-01  7.3694752074177738e-01  8.1019973374526877e-01  8.9506204323466099e-01  9.9488382257057351e-01  1.1140563943255120e+00  1.2584367876235403e+00  1.4359682074676456e+00  1.6576041983164573e+00  1.9387151002720777e+00  2.3012907334040267e+00  2.7775273822471385e+00  3.4159787773707833e+00  4.2929890408015678e+00  5.5355656942813312e+00  7.3771811917658487e+00  1.0195867748778133e+01  0.0000000000000000e+00  1.0967717360320627e-01  2.0684606425665580e-01  2.8718361031667150e-01  3.4976029519980689e-01  3.9520903973298438e-01  4.2522360146147264e-01  4.4207969280328152e-01  4.4824244470308106e-01  4.4609993638771145e-01  4.3780359398337082e-01  4.2519744817699207e-01  4.0981096052432625e-01  3.9289334861707365e-01  3.7547393576164984e-01  3.5844028859362803e-01  3.4263381287858380e-01  3.2897120683033021e-01  3.1861133314135498e-01  3.1320396877885665e-01  3.1528510242517654e-01  3.2893288106168223e-01  3.6088705263896259e-01  4.2249849692313657e-01  5.3318810317424392e-01  7.2673073494814489e-01  1.0631236552913368e+00  1.6522388886803563e+00  2.7072985490684731e+00  4.6800206058754368e+00  8.8606244010414130e+00  0.0000000000000000e+00  1.5628997303293549e-01  2.8143562999184107e-01  3.6386072366527233e-01  4.0347425912469165e-01  4.0670637033861834e-01  3.8300279430635897e-01  3.4208402823860207e-01  2.9230660970399908e-01  2.4000488837978465e-01  1.8947516769753361e-01  1.4329799885409111e-01  1.0276886847988941e-01  6.8308396071830299e-02  3.9795867422393751e-02  1.6815050458048167e-02  -1.1757295025969880e-03  -1.4728161848514132e-02  -2.4318136448975836e-02  -3.0258484765395020e-02  -3.2562470608119738e-02  -3.0667745956682261e-02  -2.2832006345980257e-02  -4.7953688798830930e-03  3.3162434804312795e-02  1.1264777325406827e-01  2.8115719079608575e-01  6.4359341936778069e-01  1.4355834889652221e+00  3.2345008288295514e+00  7.6610316865268535e+00  0.0000000000000000e+00  1.9543903024070422e-01  3.3275837459518098e-01  3.9411322866238657e-01  3.8851831370384787e-01  3.3795093157746009e-01  2.6601862381732966e-01  1.9130514798542284e-01  1.2528065438141828e-01  7.3112659662553620e-02  3.5596649762204793e-02  1.1088155543607167e-02  -3.0569255368131593e-03  -9.5985760737947404e-03  -1.0970000628879996e-02  -9.1204499776760938e-03  -5.5149583806359250e-03  -1.2054766972199457e-03  3.0755420391934290e-03  6.8233611858912772e-03  9.6834844699217239e-03  1.1406987405159717e-02  1.1903259710516111e-02  1.1614250254934221e-02  1.2893099643699812e-02  2.4293820201720259e-02  7.2816408372384830e-02  2.3659367250325711e-01  7.3516749610333509e-01  2.1803406259926126e+00  6.5875753206513901e+00  0.0000000000000000e+00  2.2672012248167367e-01  3.6311934045556216e-01  3.8996013306685057e-01  3.3573845259186208e-01  2.4455736425995264e-01  1.5276110904490650e-01  8.0294980461941043e-02  3.2569113712288184e-02  6.3616263750039554e-03  -4.7522524547921642e-03  -7.0480469251436228e-03  -5.2493418769542647e-03  -2.3318282474248373e-03  1.3595466264174676e-04  1.5311829886018606e-03  1.7814660474957103e-03  1.0866518410855934e-03  -2.5311204360459769e-04  -1.9334519062197883e-03  -3.6980122301491784e-03  -5.3781077642928599e-03  -6.9511568708688163e-03  -8.6239423595843440e-03  -1.0727447567180430e-02  -1.2247770571115377e-02  -3.5261600404725714e-03  6.1811818595414493e-02  3.5691120389734421e-01  1.4878083130664530e+00  5.6310869928167993e+00  0.0000000000000000e+00  2.5036351904834880e-01  3.7680259682002232e-01  3.6518266209075134e-01  2.7125273489445678e-01  1.6080023556646722e-01  7.4343777971799793e-02  2.3058508094454359e-02  3.6544273511421039e-04  -5.4774012219161415e-03  -4.1947571432602217e-03  -1.4606186479856446e-03  3.9786276998354537e-04  9.9417387264765953e-04  7.3942046193279840e-04  1.8552797175930291e-04  -2.5167991271211930e-04  -3.5297450509790305e-04  -6.2826992469484862e-05  5.6818607804375021e-04  1.4358632025826454e-03  2.4194733859109700e-03  3.3898977306051391e-03  4.1376712262910214e-03  4.0897984944679566e-03  1.9614844596372327e-03  -2.0890517264069482e-03  1.0920564909812887e-02  1.6273541921561838e-01  9.9128812180164161e-01  4.7827443664096929e+00  0.0000000000000000e+00  2.6702752972672694e-01  3.7854263771421814e-01  3.3120723411923775e-01  2.1086585028668944e-01  9.8918599639493773e-02  3.0160707848291755e-02  1.3354762035292641e-03  -4.7731318177367619e-03  -2.8517694592798360e-03  -3.6945730584800015e-04  6.3826949496868790e-04  5.3301126736954839e-04  1.0534582787309277e-04  -1.7076193686515228e-04  -1.9240653078846537e-04  -6.3737837310099473e-05  6.0133110617238448e-05  5.9882071263822236e-05  -1.1995978430964615e-04  -4.7551471772907150e-04  -9.5886483208891342e-04  -1.4855219907972809e-03  -1.9365827873635258e-03  -2.2509272566165308e-03  -3.0740380508686273e-03  -6.8417876734806968e-03  -1.0762486101923716e-02  5.5349867319181879e-02  6.4778408348943495e-01  4.0340710788015235e+00  0.0000000000000000e+00  2.7760054291852376e-01  3.7259672383200548e-01  2.9583926403261535e-01  1.6142379577821384e-01  5.8328170786744987e-02  9.0097239765998642e-03  -3.8958686072374160e-03  -2.8683671922266961e-03  -3.1149337815478703e-04  5.4087330123467250e-04  3.0729479822669140e-04  -3.4024666144252001e-05  -1.2740997955524195e-04  -4.9590040469241393e-05  3.9366127467620222e-05  6.1364060507369220e-05  3.1933721256757343e-05  1.2949273960201097e-05  6.7378309749766991e-05  2.3402717231783634e-04  5.1947731738949865e-04  8.9786499211610385e-04  1.3388938356643149e-03  1.8642315495650795e-03  2.4343946341303440e-03  1.2441836392904568e-03  -6.3440394726389506e-03  1.1259949468575973e-02  4.1125611846999932e-01  3.3769367413485885e+00  0.0000000000000000e+00  2.8304215097613933e-01  3.6234174830554700e-01  2.6360678654934794e-01  1.2421815644002619e-01  3.3806206049879106e-02  4.0476799095986565e-04  -3.5944742423094900e-03  -8.9475881099365239e-04  4.2491981325735100e-04  2.8347227597397745e-04  -3.4462595027031922e-05  -8.9345503280707656e-05  -1.3524672341342256e-05  3.0510710947293316e-05  1.6730974588634219e-05  -1.0956238131921528e-05  -1.8204444510823424e-05  -7.2174013605150498e-06  -4.3396885129042085e-06  -3.7794965422520618e-05  -1.2237549182924631e-04  -2.5520479284472339e-04  -4.3911385975663631e-04  -6.3081006963632436e-04  -6.4603452811354072e-04  -7.3030792899328163e-04  -6.3725642497267062e-03  -1.1713320770970061e-02  2.4433584241244571e-01  2.8035569393920090e+00  0.0000000000000000e+00  2.8427416214016987e-01  3.5021402735395363e-01  2.3666845588184765e-01  9.7927448588851329e-02  1.9905413963739085e-02  -2.3832339786970099e-03  -2.2873598592215720e-03  3.0586696982876614e-05  3.6481058675339346e-04  2.7136508298188576e-05  -7.7777143838229709e-05  -1.4450196704601132e-05  2.1908382847627719e-05  7.5837476204238268e-06  -7.7120879334116864e-06  -4.2122001950357313e-06  6.4202896852663156e-06  1.2076916834524635e-05  1.9069884859055680e-05  5.0987430707493723e-05  1.4016857180320546e-04  3.1280423585265557e-04  5.8370416838631931e-04  8.7547839882756706e-04  1.2629837726997558e-03  1.9251033112812452e-03  -2.1422362331898433e-04  -1.4459454458538917e-02  1.3737605263385139e-01  2.3064932322577616e+00  0.0000000000000000e+00  2.8211784227006725e-01  3.3782243735545486e-01  2.1571146314336384e-01  8.0449552981223096e-02  1.2510548788877199e-02  -2.8720389611359585e-03  -1.2871674894504104e-03  2.9234910434798020e-04  1.8481803709349224e-04  -5.5247196358803296e-05  -3.4686619571344600e-05  1.4418495516151789e-05  8.6558959119959520e-06  -5.1730185841100964e-06  -2.8870500530134202e-06  2.0402776927807430e-06  4.4737058362627987e-07  -3.7652231295053952e-06  -4.0381778160197915e-06  2.1433084017411172e-06  1.6627329442142296e-05  5.1325995222796969e-05  1.0607956062573662e-04  1.9048369866656419e-04  1.1685775222350108e-04  4.6441816412299452e-04  -1.9915549064117405e-04  -1.4299695041076683e-02  6.2079011583944826e-02  1.8786531532566473e+00  0.0000000000000000e+00  2.7726461751369241e-01  3.2612171983724564e-01  2.0062569682537451e-01  6.9807953163967415e-02  8.9792361863141480e-03  -2.6303515880588897e-03  -7.3901408679494457e-04  2.9788072834705865e-04  7.3827581859937331e-05  -5.5321329410697248e-05  -5.4884035454178832e-06  1.2419902020257608e-05  -9.0974491354982701e-07  -3.3756526903541651e-06  1.1293571141826881e-06  8.6127932592691650e-07  -9.5752100447135679e-07  -6.0843597166083743e-07  1.6499429338742725e-06  1.0410387143053442e-05  4.9812721940466965e-05  1.5806099852036742e-04  3.9377031444934427e-04  7.1939292684030027e-04  1.1012106623412331e-03  1.2979352680019939e-03  2.4343495065827182e-03  -9.2758063619712231e-03  1.9544597649908048e-02  1.5132902096843166e+00  0.0000000000000000e+00  2.7027387777122264e-01  3.1557947728781288e-01  1.9093688221577768e-01  6.4486731993246282e-02  7.8164230416368722e-03  -2.2424976348838195e-03  -5.1188978396756054e-04  2.4365239296661443e-04  3.0980123286998826e-05  -3.9777384814601132e-05  3.1638285046152108e-06  6.6081619271094893e-06  -2.4301273926705715e-06  -9.0598559920950476e-07  1.0477242952906279e-06  -1.5270659248362468e-07  -3.7427517812384672e-07  -6.0059535036904938e-07  -2.9536461505735945e-06  -2.2952776768639306e-06  2.0442239289430022e-05  1.1467168372075788e-04  3.0659262336137137e-04  6.4825693084817604e-04  8.7918939832739250e-04  1.0037950801895618e-03  1.5459713248022772e-03  -5.3890866752653874e-03  -9.1866917618674149e-03  1.2040038828212525e+00  0.0000000000000000e+00  2.6157496709071121e-01  3.0631794828725900e-01  1.8604213696859415e-01  6.3483700633341397e-02  8.3129768123446079e-03  -1.8456673350331577e-03  -4.8075153161276153e-04  1.8907351188490463e-04  2.5999907430894490e-05  -2.8384921474239358e-05  2.4309890192552138e-06  3.9073961885007898e-06  -1.5026537506988729e-06  -3.1286959869372734e-07  3.8930028606502741e-07  -1.0821986192611905e-07  1.7553136798694521e-07  -1.3437691020041075e-07  -2.6692580141829409e-06  -4.5501594434459497e-06  2.1098908657222473e-05  1.3151947906693608e-04  4.3441954219054866e-04  8.8460314844127823e-04  1.4992180702839445e-03  1.5394036276868014e-03  2.4263200206859534e-03  -1.4431492013013926e-03  -2.1232196197186377e-02  9.4473962793277866e-01  0.0000000000000000e+00  2.5149544925952749e-01  2.9821122104562781e-01  1.8532183114044468e-01  6.6239520366972657e-02  1.0291689722395593e-02  -1.3675986038236563e-03  -5.7077656865653088e-04  1.3245632804732369e-04  3.9850704230825171e-05  -2.0347808988788939e-05  -1.6233497954908718e-06  2.9830743496149073e-06  -2.0975103823382717e-07  -2.3925572341840551e-07  3.5092750170422640e-08  -6.0928010635808088e-08  3.4415843691242810e-07  3.8538376435705707e-07  -3.3150858070585475e-06  -8.8326583931270349e-06  1.1369110753452483e-05  1.5137427167914765e-04  4.9428284829881506e-04  1.1141035041289627e-03  1.6789867400100805e-03  1.9937071317146504e-03  1.7716018363218271e-03  1.1924362360795865e-03  -2.7927945646991144e-02  7.2978887426905703e-01  0.0000000000000000e+00  2.4025300996704174e-01  2.9096323171218774e-01  1.8815112712807297e-01  7.2536566726251889e-02  1.3958947467393906e-02  -5.8391944777913714e-04  -7.2833326425732604e-04  4.6008854805406956e-05  6.0619145993373420e-05  -8.6732415688745618e-06  -6.4138059931440713e-06  1.1541516359297941e-06  8.4615313767089836e-07  1.6805534299215553e-07  -8.9752881114011417e-08  -1.4499144407378756e-07  6.6671151333214243e-07  1.0260951316435545e-06  -4.6069414071475174e-06  -1.4885677936619124e-05  1.5512293632200040e-05  1.9478805962123944e-04  6.8447237800380164e-04  1.4433581241994893e-03  2.3041015320515649e-03  2.5937395434361757e-03  2.2906494678230833e-03  2.9298983237495383e-03  -2.7165508287127590e-02  5.5378902506508831e-01  0.0000000000000000e+00  2.2801739022699413e-01  2.8414299790406733e-01  1.9388794139210083e-01  8.2368608809901669e-02  1.9841787527193719e-02  9.2268529782442345e-04  -8.5395058217689406e-04  -1.0940565208619421e-04  6.7145388961287422e-05  1.3320432404547045e-05  -6.6036517152444032e-06  -2.7032119092305502e-06  -1.7200294628152746e-07  -1.1242558058833651e-07  -4.7061845459792201e-07  -2.4772649524678995e-08  1.6966381663357085e-06  1.2497129463144989e-06  -9.8663423834350598e-06  -2.1840297198899118e-05  2.8154464593538935e-05  3.0971692627987385e-04  9.4739926030734450e-04  1.9915115464166598e-03  2.8789673926409736e-03  3.4034738534471374e-03  2.2867160488368355e-03  3.9407808856961679e-03  -2.4987716342397420e-02  4.1172345754071188e-01  0.0000000000000000e+00  2.1484960609806034e-01  2.7722415826591951e-01  2.0178232856728653e-01  9.5806597630214041e-02  2.8738164888399035e-02  3.8737811969801780e-03  -6.8359964089296122e-04  -3.4723403715681005e-04  1.1120608706154831e-05  3.7003362639461122e-05  7.0395637905154581e-06  -2.3616348203042945e-06  -2.2540300956833963e-06  -1.4228111460888196e-06  -4.5367750095140541e-07  1.7288930966727631e-06  3.4847891471576216e-06  -2.5906592338141950e-06  -2.2756040713543167e-05  -2.8680511505319891e-05  9.2139155823911100e-05  5.3312214229921725e-04  1.4585421759002978e-03  2.7353793656757445e-03  3.8460969324996554e-03  4.2169618115262732e-03  2.9457887612540381e-03  4.2666312357038270e-03  -2.0295901532007169e-02  2.9892152290060581e-01  0.0000000000000000e+00  2.0083787772898570e-01  2.6959519481006800e-01  2.1094815231858979e-01  1.1281123629333271e-01  4.1650193937236811e-02  9.4259829163979708e-03  4.2317001043088473e-04  -5.3036583104632310e-04  -1.6673455285375776e-04  8.3976952266430915e-06  2.4577758400761573e-05  1.1797156731585122e-05  4.8183423155224393e-06  3.3704929129133038e-06  4.5367691783465289e-06  5.4315706812705394e-06  -4.5079010892701895e-07  -2.0872795462452282e-05  -4.5517111455460731e-05  -8.0724495220899639e-08  2.7814600095063096e-04  1.0242056069748036e-03  2.2961748092353404e-03  3.9040287619805177e-03  5.0091884619808324e-03  5.2834787537642779e-03  3.4661696246811578e-03  4.3555577516624488e-03  -1.5892359222625402e-02  2.1105854633428678e-01  0.0000000000000000e+00  1.8591993353107489e-01  2.6057377128313586e-01  2.2020544619859736e-01  1.3300107033296293e-01  5.9572662089811185e-02  1.9249047063940032e-02  3.7892621360355893e-03  -5.7683030119722854e-05  -3.7360331892245254e-04  -1.5480590351888199e-04  -3.0288332958418048e-05  4.9406252452755133e-06  9.6423023328898009e-06  7.7615242060986159e-06  2.8786259174470133e-06  -9.2828989676742254e-06  -3.3580141746861773e-05  -6.0292285611806508e-05  -3.3516236380303456e-05  1.8233714738251776e-04  8.0115658957176155e-04  2.0012859539391115e-03  3.7375490496988368e-03  5.5441221135622745e-03  6.6022316511765130e-03  6.3964509626434664e-03  4.2720506432746223e-03  4.1441352329442110e-03  -1.1309466023427412e-02  1.4415582701611010e-01  0.0000000000000000e+00  1.7017462993849930e-01  2.4944919432709006e-01  2.2813538619774834e-01  1.5538843801696769e-01  8.3134412785308628e-02  3.5383466076203969e-02  1.1712004120179852e-02  2.6885006764502399e-03  1.4645035003451039e-04  -2.6626926334265830e-04  -2.0629494018636557e-04  -1.2031157095754568e-04  -7.4858832674494304e-05  -6.0419865059800938e-05  -6.5354912818247623e-05  -8.0131920476950232e-05  -8.2651295556532541e-05  -1.4035795891412790e-05  2.4608708838804583e-04  8.8314640984900165e-04  2.0803188641090112e-03  3.8914396210394963e-03  6.0242054678706679e-03  7.8675460326795964e-03  8.5115817701225133e-03  7.6852948968205133e-03  4.9961788275299027e-03  3.9376495306779084e-03  -7.5925939535734632e-03  9.4580638105269843e-02  0.0000000000000000e+00  1.5342613860448617e-01  2.3544023185306517e-01  2.3286551151055615e-01  1.7802402097160497e-01  1.1190125821035964e-01  5.9605944293908177e-02  2.7363949287703734e-02  1.0912518691519560e-02  3.7582429357021657e-03  1.0652543736797923e-03  1.8583100534939057e-04  -5.5998981766715459e-05  -1.0179638037384605e-04  -9.1140229761735216e-05  -5.0635016065429008e-05  4.4205548262875639e-05  2.5976822631943353e-04  7.0918534097062888e-04  1.5457365972132895e-03  2.9162385523247994e-03  4.8700188737336135e-03  7.2181977981526438e-03  9.4700148684762273e-03  1.0877625957253370e-02  1.0752110578737574e-02  8.9630221192505688e-03  5.7257750284962442e-03  3.6689992492577234e-03  -4.5278367679794035e-03  5.9046226745798708e-02  0.0000000000000000e+00  1.3581901337518379e-01  2.1788253420085510e-01  2.3238909039533540e-01  1.9789467030983179e-01  1.4365714313816280e-01  9.2185137025728697e-02  5.3730387565612117e-02  2.9181191895702258e-02  1.5194496335817200e-02  7.8571196932991881e-03  4.2226665291213890e-03  2.4980287921562523e-03  1.7328971589678354e-03  1.4784802893386081e-03  1.5571944604540935e-03  1.9369156649574042e-03  2.6657581273560383e-03  3.8282645447607565e-03  5.4941447647801544e-03  7.6499276424278157e-03  1.0112164404574219e-02  1.2479261807781522e-02  1.4141069703905294e-02  1.4475454533004169e-02  1.3072988575443461e-02  1.0158242437746821e-02  6.2713585438771511e-03  3.4491510079090815e-03  -2.3390188081186874e-03  3.4611814066567992e-02  0.0000000000000000e+00  1.1706273498434600e-01  1.9601159444801303e-01  2.2428063405819551e-01  2.1065738517882629e-01  1.7345272142341048e-01  1.2990905971129010e-01  9.0966305179349324e-02  6.1049379098559224e-02  4.0265358046352173e-02  2.6798035807983244e-02  1.8494969302098267e-02  1.3586861111955978e-02  1.0851511257699646e-02  9.5335729103176742e-03  9.2042965153087564e-03  9.6358003879036206e-03  1.0703082538225056e-02  1.2305747414601328e-02  1.4301455345339848e-02  1.6448700954000462e-02  1.8380372364704155e-02  1.9615729167134058e-02  1.9665778435226110e-02  1.8177562885258815e-02  1.5148098949465299e-02  1.1028823082362521e-02  6.5890124486753217e-03  3.2188019599850384e-03  -8.5908849063127490e-04  1.8682595181287842e-02  0.0000000000000000e+00  9.7467179416268410e-02  1.6953840985926438e-01  2.0662622228729496e-01  2.1149143915056734e-01  1.9384056097909874e-01  1.6471770874101452e-01  1.3297975976909551e-01  1.0407868820228244e-01  8.0432048997448130e-02  6.2430977285898762e-02  4.9429946151581181e-02  4.0438136635578610e-02  3.4491923343297613e-02  3.0798651767187626e-02  2.8751645325591674e-02  2.7889076557884234e-02  2.7836410113432859e-02  2.8253084264038889e-02  2.8792006823987366e-02  2.9083320947433038e-02  2.8743365600377633e-02  2.7428189593876971e-02  2.4905600343316948e-02  2.1162127126967079e-02  1.6459538726028337e-02  1.1357762838114580e-02  6.5642295589893943e-03  2.9715151709864048e-03  -3.8874177872462677e-06  9.0097391885068691e-03  0.0000000000000000e+00  7.6656974782692774e-02  1.3797931475824615e-01  1.7749024619137355e-01  1.9524912862432484e-01  1.9531882624048377e-01  1.8340249299717046e-01  1.6501496660833975e-01  1.4448945210954259e-01  1.2469147021386276e-01  1.0717990664051913e-01  9.2555148005589880e-02  8.0817480406689346e-02  7.1648982362995620e-02  6.4599114614881728e-02  5.91880009122