<?xml version="1.0"?>
<VTKFile type="UnstructuredGrid"  version="0.1"  >
<UnstructuredGrid>
<Piece  NumberOfPoints="961" NumberOfCells="1800">
<Points>
<DataArray  type="Float64"  NumberOfComponents="3"  format="ascii">-1 -1 0  -0.9333333333333333 -1 0  -0.8666666666666667 -1 0  -0.8 -1 0  -0.7333333333333334 -1 0  -0.6666666666666667 -1 0  -0.6 -1 0  -0.5333333333333333 -1 0  -0.4666666666666667 -1 0  -0.4 -1 0  -0.3333333333333334 -1 0  -0.2666666666666667 -1 0  -0.2 -1 0  -0.1333333333333333 -1 0  -0.06666666666666665 -1 0  0 -1 0  0.06666666666666665 -1 0  0.1333333333333333 -1 0  0.2 -1 0  0.2666666666666666 -1 0  0.3333333333333333 -1 0  0.3999999999999999 -1 0  0.4666666666666666 -1 0  0.5333333333333334 -1 0  0.6000000000000001 -1 0  0.6666666666666667 -1 0  0.7333333333333334 -1 0  0.8 -1 0  0.8666666666666667 -1 0  0.9333333333333333 -1 0  1 -1 0  -1 -0.9333333333333333 0  -0.9333333333333333 -0.9333333333333333 0  -0.8666666666666667 -0.9333333333333333 0  -0.8 -0.9333333333333333 0  -0.7333333333333334 -0.9333333333333333 0  -0.6666666666666667 -0.9333333333333333 0  -0.6 -0.9333333333333333 0  -0.5333333333333333 -0.9333333333333333 0  -0.4666666666666667 -0.9333333333333333 0  -0.4 -0.9333333333333333 0  -0.3333333333333334 -0.9333333333333333 0  -0.2666666666666667 -0.9333333333333333 0  -0.2 -0.9333333333333333 0  -0.1333333333333333 -0.9333333333333333 0  -0.06666666666666665 -0.9333333333333333 0  0 -0.9333333333333333 0  0.06666666666666665 -0.9333333333333333 0  0.1333333333333333 -0.9333333333333333 0  0.2 -0.9333333333333333 0  0.2666666666666666 -0.9333333333333333 0  0.3333333333333333 -0.9333333333333333 0  0.3999999999999999 -0.9333333333333333 0  0.4666666666666666 -0.9333333333333333 0  0.5333333333333334 -0.9333333333333333 0  0.6000000000000001 -0.9333333333333333 0  0.6666666666666667 -0.9333333333333333 0  0.7333333333333334 -0.9333333333333333 0  0.8 -0.9333333333333333 0  0.8666666666666667 -0.9333333333333333 0  0.9333333333333333 -0.9333333333333333 0  1 -0.9333333333333333 0  -1 -0.8666666666666667 0  -0.9333333333333333 -0.8666666666666667 0  -0.8666666666666667 -0.8666666666666667 0  -0.8 -0.8666666666666667 0  -0.7333333333333334 -0.8666666666666667 0  -0.6666666666666667 -0.8666666666666667 0  -0.6 -0.8666666666666667 0  -0.5333333333333333 -0.8666666666666667 0  -0.4666666666666667 -0.8666666666666667 0  -0.4 -0.8666666666666667 0  -0.3333333333333334 -0.8666666666666667 0  -0.2666666666666667 -0.8666666666666667 0  -0.2 -0.8666666666666667 0  -0.1333333333333333 -0.8666666666666667 0  -0.06666666666666665 -0.8666666666666667 0  0 -0.8666666666666667 0  0.06666666666666665 -0.8666666666666667 0  0.1333333333333333 -0.8666666666666667 0  0.2 -0.8666666666666667 0  0.2666666666666666 -0.8666666666666667 0  0.3333333333333333 -0.8666666666666667 0  0.3999999999999999 -0.8666666666666667 0  0.4666666666666666 -0.8666666666666667 0  0.5333333333333334 -0.8666666666666667 0  0.6000000000000001 -0.8666666666666667 0  0.6666666666666667 -0.8666666666666667 0  0.7333333333333334 -0.8666666666666667 0  0.8 -0.8666666666666667 0  0.8666666666666667 -0.8666666666666667 0  0.9333333333333333 -0.8666666666666667 0  1 -0.8666666666666667 0  -1 -0.8 0  -0.9333333333333333 -0.8 0  -0.8666666666666667 -0.8 0  -0.8 -0.8 0  -0.7333333333333334 -0.8 0  -0.6666666666666667 -0.8 0  -0.6 -0.8 0  -0.5333333333333333 -0.8 0  -0.4666666666666667 -0.8 0  -0.4 -0.8 0  -0.3333333333333334 -0.8 0  -0.2666666666666667 -0.8 0  -0.2 -0.8 0  -0.1333333333333333 -0.8 0  -0.06666666666666665 -0.8 0  0 -0.8 0  0.06666666666666665 -0.8 0  0.1333333333333333 -0.8 0  0.2 -0.8 0  0.2666666666666666 -0.8 0  0.3333333333333333 -0.8 0  0.3999999999999999 -0.8 0  0.4666666666666666 -0.8 0  0.5333333333333334 -0.8 0  0.6000000000000001 -0.8 0  0.6666666666666667 -0.8 0  0.7333333333333334 -0.8 0  0.8 -0.8 0  0.8666666666666667 -0.8 0  0.9333333333333333 -0.8 0  1 -0.8 0  -1 -0.7333333333333334 0  -0.9333333333333333 -0.7333333333333334 0  -0.8666666666666667 -0.7333333333333334 0  -0.8 -0.7333333333333334 0  -0.7333333333333334 -0.7333333333333334 0  -0.6666666666666667 -0.7333333333333334 0  -0.6 -0.7333333333333334 0  -0.5333333333333333 -0.7333333333333334 0  -0.4666666666666667 -0.7333333333333334 0  -0.4 -0.7333333333333334 0  -0.3333333333333334 -0.7333333333333334 0  -0.2666666666666667 -0.7333333333333334 0  -0.2 -0.7333333333333334 0  -0.1333333333333333 -0.7333333333333334 0  -0.06666666666666665 -0.7333333333333334 0  0 -0.7333333333333334 0  0.06666666666666665 -0.7333333333333334 0  0.1333333333333333 -0.7333333333333334 0  0.2 -0.7333333333333334 0  0.2666666666666666 -0.7333333333333334 0  0.3333333333333333 -0.7333333333333334 0  0.3999999999999999 -0.7333333333333334 0  0.4666666666666666 -0.7333333333333334 0  0.5333333333333334 -0.7333333333333334 0  0.6000000000000001 -0.7333333333333334 0  0.6666666666666667 -0.7333333333333334 0  0.7333333333333334 -0.7333333333333334 0  0.8 -0.7333333333333334 0  0.8666666666666667 -0.7333333333333334 0  0.9333333333333333 -0.7333333333333334 0  1 -0.7333333333333334 0  -1 -0.6666666666666667 0  -0.9333333333333333 -0.6666666666666667 0  -0.8666666666666667 -0.6666666666666667 0  -0.8 -0.6666666666666667 0  -0.7333333333333334 -0.6666666666666667 0  -0.6666666666666667 -0.6666666666666667 0  -0.6 -0.6666666666666667 0  -0.5333333333333333 -0.6666666666666667 0  -0.4666666666666667 -0.6666666666666667 0  -0.4 -0.6666666666666667 0  -0.3333333333333334 -0.6666666666666667 0  -0.2666666666666667 -0.6666666666666667 0  -0.2 -0.6666666666666667 0  -0.1333333333333333 -0.6666666666666667 0  -0.06666666666666665 -0.6666666666666667 0  0 -0.6666666666666667 0  0.06666666666666665 -0.6666666666666667 0  0.1333333333333333 -0.6666666666666667 0  0.2 -0.6666666666666667 0  0.2666666666666666 -0.6666666666666667 0  0.3333333333333333 -0.6666666666666667 0  0.3999999999999999 -0.6666666666666667 0  0.4666666666666666 -0.6666666666666667 0  0.5333333333333334 -0.6666666666666667 0  0.6000000000000001 -0.6666666666666667 0  0.6666666666666667 -0.6666666666666667 0  0.7333333333333334 -0.6666666666666667 0  0.8 -0.6666666666666667 0  0.8666666666666667 -0.6666666666666667 0  0.9333333333333333 -0.6666666666666667 0  1 -0.6666666666666667 0  -1 -0.6 0  -0.9333333333333333 -0.6 0  -0.8666666666666667 -0.6 0  -0.8 -0.6 0  -0.7333333333333334 -0.6 0  -0.6666666666666667 -0.6 0  -0.6 -0.6 0  -0.5333333333333333 -0.6 0  -0.4666666666666667 -0.6 0  -0.4 -0.6 0  -0.3333333333333334 -0.6 0  -0.2666666666666667 -0.6 0  -0.2 -0.6 0  -0.1333333333333333 -0.6 0  -0.06666666666666665 -0.6 0  0 -0.6 0  0.06666666666666665 -0.6 0  0.1333333333333333 -0.6 0  0.2 -0.6 0  0.2666666666666666 -0.6 0  0.3333333333333333 -0.6 0  0.3999999999999999 -0.6 0  0.4666666666666666 -0.6 0  0.5333333333333334 -0.6 0  0.6000000000000001 -0.6 0  0.6666666666666667 -0.6 0  0.7333333333333334 -0.6 0  0.8 -0.6 0  0.8666666666666667 -0.6 0  0.9333333333333333 -0.6 0  1 -0.6 0  -1 -0.5333333333333333 0  -0.9333333333333333 -0.5333333333333333 0  -0.8666666666666667 -0.5333333333333333 0  -0.8 -0.5333333333333333 0  -0.7333333333333334 -0.5333333333333333 0  -0.6666666666666667 -0.5333333333333333 0  -0.6 -0.5333333333333333 0  -0.5333333333333333 -0.5333333333333333 0  -0.4666666666666667 -0.5333333333333333 0  -0.4 -0.5333333333333333 0  -0.3333333333333334 -0.5333333333333333 0  -0.2666666666666667 -0.5333333333333333 0  -0.2 -0.5333333333333333 0  -0.1333333333333333 -0.5333333333333333 0  -0.06666666666666665 -0.5333333333333333 0  0 -0.5333333333333333 0  0.06666666666666665 -0.5333333333333333 0  0.1333333333333333 -0.5333333333333333 0  0.2 -0.5333333333333333 0  0.2666666666666666 -0.5333333333333333 0  0.3333333333333333 -0.5333333333333333 0  0.3999999999999999 -0.5333333333333333 0  0.4666666666666666 -0.5333333333333333 0  0.5333333333333334 -0.5333333333333333 0  0.6000000000000001 -0.5333333333333333 0  0.6666666666666667 -0.5333333333333333 0  0.7333333333333334 -0.5333333333333333 0  0.8 -0.5333333333333333 0  0.8666666666666667 -0.5333333333333333 0  0.9333333333333333 -0.5333333333333333 0  1 -0.5333333333333333 0  -1 -0.4666666666666667 0  -0.9333333333333333 -0.4666666666666667 0  -0.8666666666666667 -0.4666666666666667 0  -0.8 -0.4666666666666667 0  -0.7333333333333334 -0.4666666666666667 0  -0.6666666666666667 -0.4666666666666667 0  -0.6 -0.4666666666666667 0  -0.5333333333333333 -0.4666666666666667 0  -0.4666666666666667 -0.4666666666666667 0  -0.4 -0.4666666666666667 0  -0.3333333333333334 -0.4666666666666667 0  -0.2666666666666667 -0.4666666666666667 0  -0.2 -0.4666666666666667 0  -0.1333333333333333 -0.4666666666666667 0  -0.06666666666666665 -0.4666666666666667 0  0 -0.4666666666666667 0  0.06666666666666665 -0.4666666666666667 0  0.1333333333333333 -0.4666666666666667 0  0.2 -0.4666666666666667 0  0.2666666666666666 -0.4666666666666667 0  0.3333333333333333 -0.4666666666666667 0  0.3999999999999999 -0.4666666666666667 0  0.4666666666666666 -0.4666666666666667 0  0.5333333333333334 -0.4666666666666667 0  0.6000000000000001 -0.4666666666666667 0  0.6666666666666667 -0.4666666666666667 0  0.7333333333333334 -0.4666666666666667 0  0.8 -0.4666666666666667 0  0.8666666666666667 -0.4666666666666667 0  0.9333333333333333 -0.4666666666666667 0  1 -0.4666666666666667 0  -1 -0.4 0  -0.9333333333333333 -0.4 0  -0.8666666666666667 -0.4 0  -0.8 -0.4 0  -0.7333333333333334 -0.4 0  -0.6666666666666667 -0.4 0  -0.6 -0.4 0  -0.5333333333333333 -0.4 0  -0.4666666666666667 -0.4 0  -0.4 -0.4 0  -0.3333333333333334 -0.4 0  -0.2666666666666667 -0.4 0  -0.2 -0.4 0  -0.1333333333333333 -0.4 0  -0.06666666666666665 -0.4 0  0 -0.4 0  0.06666666666666665 -0.4 0  0.1333333333333333 -0.4 0  0.2 -0.4 0  0.2666666666666666 -0.4 0  0.3333333333333333 -0.4 0  0.3999999999999999 -0.4 0  0.4666666666666666 -0.4 0  0.5333333333333334 -0.4 0  0.6000000000000001 -0.4 0  0.6666666666666667 -0.4 0  0.7333333333333334 -0.4 0 
[...]
<PointData  Scalars="f_24"> 
<DataArray  type="Float64"  Name="f_24"  format="ascii">0.0000000000000000e+00  0.0000000000000000e+00  0.0000000000000000e+00  0.0000000000000000e+00  0.0000000000000000e+00  0.0000000000000000e+00  0.0000000000000000e+00  0.0000000000000000e+00  0.0000000000000000e+00  0.0000000000000000e+00  0.0000000000000000e+00  0.0000000000000000e+00  0.0000000000000000e+00  0.0000000000000000e+00  0.0000000000000000e+00  0.0000000000000000e+00  0.0000000000000000e+00  0.0000000000000000e+00  0.0000000000000000e+00  0.0000000000000000e+00  0.0000000000000000e+00  0.0000000000000000e+00  0.0000000000000000e+00  0.0000000000000000e+00  0.0000000000000000e+00  0.0000000000000000e+00  0.0000000000000000e+00  0.0000000000000000e+00  0.0000000000000000e+00  0.0000000000000000e+00  1.0887210179273408e+01  0.0000000000000000e+00  5.3081965040009664e-02  1.0314774172821412e-01  1.5025167067694037e-01  1.9485008242808741e-01  2.3741539748315391e-01  2.7843669909509683e-01  3.1843515452948534e-01  3.5797737199082053e-01  3.9769006019783382e-01  4.3827556782557581e-01  4.8053070216009280e-01  5.2537194587488045e-01  5.7387058712399253e-01  6.2730205117005311e-01  6.8721505903800673e-01  7.5552840616413264e-01  8.3466677936780442e-01  9.2775262371995337e-01  1.0388798371801080e+00  1.1735088866257224e+00  1.3390453360001171e+00  1.5457015351851904e+00  1.8078079943132024e+00  2.1458671571070047e+00  2.5898978924252911e+00  3.1851706530066295e+00  4.0028675289512430e+00  5.1614089865925186e+00  6.8784830585617520e+00  9.5065640775391049e+00  0.0000000000000000e+00  1.0248918475742097e-01  1.9294183481979765e-01  2.6780459307111970e-01  3.2613787316520837e-01  3.6850994547435628e-01  3.9649809913692702e-01  4.1222211512553392e-01  4.1798045187358329e-01  4.1599994107030103e-01  4.0828689415592273e-01  3.9656105632054800e-01  3.8224877079701364e-01  3.6651490243040175e-01  3.5031902985188801e-01  3.3448820216769559e-01  3.1980598697281248e-01  3.0712563585412866e-01  2.9752561787067811e-01  2.9254153535702221e-01  2.9453472859097923e-01  3.0730396628959650e-01  3.3712935181721626e-01  3.9459023684059558e-01  4.9779045018672397e-01  6.7821759654766278e-01  9.9180922795319149e-01  1.5410062708948358e+00  2.5246133619360664e+00  4.3638088701808107e+00  8.2615914320388590e+00  0.0000000000000000e+00  1.4609539303756733e-01  2.6253828264150431e-01  3.3931767245979128e-01  3.7623055296210672e-01  3.7923726165842175e-01  3.5714152598834931e-01  3.1900270578545903e-01  2.7261308899013559e-01  2.2387924771329037e-01  1.7680820080152193e-01  1.3380736167104132e-01  9.6085940134616826e-02  6.4037339265580140e-02  3.7549919330708191e-02  1.6235951170400494e-02  -4.1014478859540738e-04  -1.2904606237506987e-02  -2.1694797254819886e-02  -2.7078303874289229e-02  -2.9075965048424836e-02  -2.7174495348306620e-02  -1.9762545882639520e-02  -2.8825209784837063e-03  3.2514736645498511e-02  1.0656286958419342e-01  2.6353860257044082e-01  6.0124749391690202e-01  1.3393847946826969e+00  3.0162914841731818e+00  7.1430985986212834e+00  0.0000000000000000e+00  1.8276213740407263e-01  3.1045187717488537e-01  3.6754460303050907e-01  3.6229352749973071e-01  3.1513479765060376e-01  2.4807384879598721e-01  1.7843120377432181e-01  1.1690263590539060e-01  6.8306342532430522e-02  3.3385948736544636e-02  1.0610184319591350e-02  -2.4836983304779426e-03  -8.4660076056448166e-03  -9.6020005727395930e-03  -7.7055635173672180e-03  -4.1395545085633227e-03  1.1688281731444763e-04  4.3795971262007276e-03  8.1719499753402439e-03  1.1150510407207673e-02  1.3061737217203223e-02  1.3790753595867468e-02  1.3712153122571302e-02  1.4980198966012171e-02  2.5535753296608409e-02  7.0531145449247115e-02  2.2281137716196195e-01  6.8708465999322965e-01  2.0338077092109708e+00  6.1422145171403031e+00  0.0000000000000000e+00  2.1211383954218724e-01  3.3883517593618934e-01  3.6369130804193744e-01  3.1308751846194782e-01  2.2805713796127200e-01  1.4247773142084616e-01  7.4934566611817230e-02  3.0472641922013308e-02  6.0865780991578638e-03  -4.2120396716199904e-03  -6.2726170142404555e-03  -4.4959352230567635e-03  -1.6516839265917132e-03  8.0429638353084426e-04  2.2999316708911216e-03  2.7780209088585626e-03  2.4358161454092636e-03  1.5624004181252048e-03  4.4512784302199344e-04  -6.8486040383140096e-04  -1.6964601849170796e-03  -2.6189098372604411e-03  -3.7205615507629923e-03  -5.4029823861107282e-03  -6.8120225344840239e-03  9.9544004501778724e-04  6.1246516224310210e-02  3.3541845754992494e-01  1.3886349546310497e+00  5.2503907114551556e+00  0.0000000000000000e+00  2.3436712240490729e-01  3.5168662871184164e-01  3.4060777543815579e-01  2.5296546236380418e-01  1.4996185588392622e-01  6.9362806829528320e-02  2.1569022321703005e-02  4.4622361176509316e-04  -4.9571526427964136e-03  -3.7067399044109009e-03  -1.0921150940867261e-03  7.2052463419206708e-04  1.3762596030549045e-03  1.2672354614247014e-03  9.2090828423187676e-04  7.4267311335236808e-04  9.5969219689790147e-04  1.6501296412826029e-03  2.7922723915865390e-03  4.3038799009988337e-03  6.0613718283973024e-03  7.8883902166187545e-03  9.4735309072654129e-03  1.0108124894117861e-02  8.3941426882504014e-03  4.3186409834504785e-03  1.5531832517390281e-02  1.5563453837594343e-01  9.2634606169880607e-01  4.4594012894303887e+00  0.0000000000000000e+00  2.5013820523968472e-01  3.5342571620136348e-01  3.0894951869824322e-01  1.9666433232927202e-01  9.2261086068656475e-02  2.8164340951088850e-02  1.3091186598698178e-03  -4.3570007288984266e-03  -2.5331852534627029e-03  -1.8205268553552330e-04  7.9815301423208156e-04  7.4794110790539210e-04  4.0922531283838935e-04  2.3270668057255551e-04  3.2785416338901633e-04  6.1838020620342768e-04  9.9043745326051705e-04  1.3756230641445574e-03  1.7759624524069761e-03  2.2504227279586475e-03  2.8777849994809533e-03  3.7109885713385200e-03  4.7291712907176989e-03  5.7246026364230884e-03  5.7296039549626721e-03  2.1251222758692746e-03  -2.6417076386790858e-03  5.7009850566992808e-02  6.0684369097483115e-01  3.7613429429358631e+00  0.0000000000000000e+00  2.6025812989976760e-01  3.4802849069263397e-01  2.7599696204949181e-01  1.5056823027473962e-01  5.4410679238424631e-02  8.4384261865320578e-03  -3.5787964240233841e-03  -2.6000070507906231e-03  -1.9745277779081058e-04  6.1581233859224710e-04  4.1538840307174058e-04  1.1655713161594300e-04  5.4191207472091580e-05  1.6354351831761034e-04  3.0574876763849444e-04  4.2598631451174764e-04  5.6919505328327307e-04  8.4330493688333698e-04  1.3836188668612615e-03  2.3281850797416230e-03  3.7885758090515946e-03  5.7931483985058227e-03  8.2216317709871353e-03  1.0767307641158342e-02  1.2824664777007399e-02  1.2068127655586874e-02  3.7943743648162246e-03  1.7624462506271629e-02  3.8718912401168826e-01  3.1486349478467561e+00  0.0000000000000000e+00  2.6562513204815630e-01  3.3865164497205757e-01  2.4597650640927515e-01  1.1588217842312308e-01  3.1541934432879823e-02  4.0898919493635738e-04  -3.3098397108576707e-03  -7.8007600020051332e-04  4.5770991107476564e-04  3.3140721992929275e-04  3.7359215479763311e-05  -1.1368392703450791e-05  6.3374715967778587e-05  1.1427282054027050e-04  1.2259710558900247e-04  1.4074105862145220e-04  2.2337872855892946e-04  4.1379667721990751e-04  7.7133603400722625e-04  1.4070970373009067e-03  2.4922698490626675e-03  4.2021324607220689e-03  6.5543434278217665e-03  9.2678662837677606e-03  1.1745473044601403e-02  1.2721144913371254e-02  6.3215732987863564e-03  -1.8647190330440197e-03  2.3252810502074917e-01  2.6140191640435448e+00  0.0000000000000000e+00  2.6710175996627011e-01  3.2757749801532754e-01  2.2090694024839752e-01  9.1375400272657017e-02  1.8576488295317276e-02  -2.1969206555146488e-03  -2.1026427972642256e-03  6.5259760875713976e-05  3.7715512427193839e-04  6.1321371852435323e-05  -4.0496721452081256e-05  1.4900461154607830e-05  4.5605435470228353e-05  3.1691094975183241e-05  2.0993818548648659e-05  3.6994230553632194e-05  8.0992477020118216e-05  1.7344866860192386e-04  3.9393993728293160e-04  9.1411770361101363e-04  2.0141540818468372e-03  4.0302062551277572e-03  7.1766628291593075e-03  1.1158399100188413e-02  1.5122411470278737e-02  1.7733174589857941e-02  1.4823834744476495e-02  -2.3046998423539296e-03  1.3385110845401021e-01  2.1505600354120324e+00  0.0000000000000000e+00  2.6545917678466063e-01  3.1631843685251576e-01  2.0143900168809686e-01  7.5089135050389721e-02  1.1678488618158117e-02  -2.6587723447662683e-03  -1.1795326338250333e-03  2.9619342839531194e-04  1.9297482248142295e-04  -3.3844960758991898e-05  -1.9644221222069851e-05  2.2382894675559112e-05  1.3592745187007684e-05  -1.2301554439415516e-06  -1.7957232637676743e-07  5.3817971656220454e-06  1.0710487313725203e-05  3.5811137602446893e-05  1.3893868178776613e-04  4.5976545756256732e-04  1.2853388245238902e-03  3.0694784182358163e-03  6.2376860325954134e-03  1.0768567081947357e-02  1.5487705863909280e-02  1.8936284577588541e-02  1.7782110179726324e-02  1.3484182687105900e-04  6.4757176860069945e-02  1.7516445898433206e+00  0.0000000000000000e+00  2.6134422059840617e-01  3.0578121872182862e-01  1.8748266492672908e-01  6.5184150598921034e-02  8.3846121315495955e-03  -2.4386107361875930e-03  -6.7554829506348774e-04  2.9246865315582564e-04  7.9758423891792142e-05  -4.3362922769361088e-05  -7.3982819379326847e-07  1.3783824418487968e-05  -5.2237851053066629e-07  -3.6297462620309210e-06  -3.1818243685485382e-07  -1.6031261300025420e-06  -4.9744842986720258e-06  -2.3036917493407390e-06  3.4663009558992503e-05  2.1903962724527558e-04  8.6283362350138011e-04  2.5489237936246398e-03  5.9979664206808231e-03  1.1410225799565231e-02  1.7760773575437056e-02  2.2330520869127103e-02  2.3353405360454226e-02  7.2579038968353599e-03  2.6252947042536234e-02  1.4109824392338337e+00  0.0000000000000000e+00  2.5528736007508807e-01  2.9642002123309036e-01  1.7861711491563689e-01  6.0251945738622061e-02  7.3026651913401181e-03  -2.0815526489499064e-03  -4.6854462953614163e-04  2.3619791092536037e-04  3.4560285430820683e-05  -3.3293458550364713e-05  4.2988633373778571e-06  6.5906521225719099e-06  -2.5939646302868107e-06  -1.1939872516171888e-06  4.6470710716752451e-07  -9.8687629756777288e-07  -3.0986747020934324e-06  -8.3924604643850394e-06  -9.3030706307221188e-06  7.4795006148434997e-05  5.3457861600736509e-04  2.0390488343674873e-03  5.5114051580052196e-03  1.1539261016432696e-02  1.8952564467365277e-02  2.4781591295555294e-02  2.5809928291923957e-02  1.3443580777405621e-02  6.3920200918449481e-04  1.1226057794853015e+00  0.0000000000000000e+00  2.4768802837766216e-01  2.8837246095639418e-01  1.7430596475241378e-01  5.9369902509441491e-02  7.7726807408880338e-03  -1.7149665846300588e-03  -4.4276460203633512e-04  1.8185777986725688e-04  2.7246827301484402e-05  -2.4641342773909578e-05  2.6803971305328597e-06  3.7190643686094406e-06  -1.5850799441837301e-06  -3.4525982108953085e-07  3.7687472163075662e-07  1.1432366832734676e-07  2.8120720330910025e-08  -4.7567031874236490e-06  -1.8407349934068151e-05  9.1637464335318869e-06  3.5423555228688246e-04  1.7520703694775717e-03  5.4176311723116250e-03  1.2150976347067879e-02  2.1122479094170199e-02  2.8197668776935848e-02  3.0088752232103080e-02  1.9776797916888758e-02  -9.4208998427485983e-03  8.8086939050476798e-01  0.0000000000000000e+00  2.3886543936746338e-01  2.8154790606140861e-01  1.7401491710826453e-01  6.2036135497675012e-02  9.6350708284543753e-03  -1.2712605267036264e-03  -5.2888551787554344e-04  1.2695926969618916e-04  3.8898260712146932e-05  -1.8051163357975415e-05  -1.3324668174897061e-06  2.7930536304523699e-06  -2.5817971778421294e-07  -2.2648695768982558e-07  3.3162596341961773e-08  1.6423941885825979e-07  1.2759524950375870e-06  -9.7962939758339048e-07  -1.9357822969023164e-05  -2.3882177676993313e-05  2.5159645047851374e-04  1.6398685709443715e-03  5.5339210883980118e-03  1.3108774698539997e-02  2.3246051793174870e-02  3.1830966681881324e-02  3.3114822434121782e-02  2.4942275509330477e-02  -1.4524929257078512e-02  6.8045063620458801e-01  0.0000000000000000e+00  2.2901722824379295e-01  2.7569981049812792e-01  1.7721121711768881e-01  6.8083804214843710e-02  1.3091511351151542e-02  -5.3887892089739351e-04  -6.7784780630706200e-04  4.5077555787626895e-05  5.7675585919327717e-05  -7.5920239604318098e-06  -5.8586972610580908e-06  1.0839800911225705e-06  7.9476601784299394e-07  1.6905195098919801e-07  -1.9546854264116018e-07  -1.5057868325405353e-07  1.9586549536297956e-06  1.3211403335584531e-06  -2.1266420188193867e-05  -4.3802102480363935e-05  2.3211949420957515e-04  1.7430203339533412e-03  6.1458243117623219e-03  1.4691587238819184e-02  2.6340166140716836e-02  3.6002826558708838e-02  3.7412161473551801e-02  2.9275233861993606e-02  -1.2738490804426007e-02  5.1634946450242869e-01  0.0000000000000000e+00  2.1831838752460997e-01  2.7046407944128298e-01  1.8337672668205041e-01  7.7571493904824249e-02  1.8660567763250414e-02  8.7793340485879570e-04  -7.9632494264763871e-04  -1.0100493573624780e-04  6.3556368525484732e-05  1.2770388414703046e-05  -6.0825889152619616e-06  -2.5165353452148738e-06  -1.3654171044388342e-07  -1.2698130311716682e-07  -6.7418013195529124e-07  -8.7000449024764840e-09  3.5458300480572312e-06  1.2828866323310466e-06  -3.1900833011180416e-05  -5.6212999953051849e-05  3.0233743403359830e-04  2.1740994381668471e-03  7.3551552782811658e-03  1.7234396011410764e-02  3.0152249137958973e-02  4.0876061579604966e-02  4.1378797366875886e-02  3.2872006101896362e-02  -9.7309374391335753e-03  3.8388840732126894e-01  0.0000000000000000e+00  2.0681928988988746e-01  2.6537922781892953e-01  1.9189962652893389e-01  9.0663949072222402e-02  2.7137867219811838e-02  3.6696014565416918e-03  -6.3524294697978837e-04  -3.2465588437330633e-04  1.0854957143308431e-05  3.4945221386160480e-05  6.6952818070633486e-06  -2.2127062739690584e-06  -2.1571566090122065e-06  -1.4812768312001014e-06  -5.8346770610510500e-07  2.4352967566694846e-06  5.8796045944378033e-06  -7.2672244881733685e-06  -5.7683619809550638e-05  -4.6745109165912476e-05  5.6797797469356739e-04  3.1248932878979478e-03  9.5786421508580379e-03  2.1004212477951676e-02  3.5314648326950374e-02  4.6334307542518285e-02  4.6068067907034833e-02  3.5689428373853894e-02  -4.5163121825185261e-03  2.7871258058939929e-01  0.0000000000000000e+00  1.9461038242960146e-01  2.5992056631251215e-01  2.0208097860133625e-01  1.0749429247750017e-01  3.9578374437259235e-02  8.9698692675263068e-03  4.2126168978386927e-04  -4.9539898511015380e-04  -1.5674196239250603e-04  7.9270425969168170e-06  2.3289510266154972e-05  1.1260080444852992e-05  4.6633263096212990e-06  3.3744937675177607e-06  5.0487880430894532e-06  6.9439720714938049e-06  -1.3978433593192588e-06  -4.0636610779898638e-05  -9.2315580284615863e-05  8.3494167153269305e-05  1.2729082363346965e-03  5.0575121458137562e-03  1.3287179529914685e-02  2.6576115700905345e-02  4.1850183425059286e-02  5.2627339455154153e-02  5.0630483184438170e-02  3.8041626195537893e-02  2.5124365000647297e-04  1.9678968424042226e-01  0.0000000000000000e+00  1.8163953843771333e-01  2.5346822643801731e-01  2.1294735441904036e-01  1.2793081316798049e-01  5.7120936406512161e-02  1.8463780448747160e-02  3.6655273107303755e-03  -3.2878328583888220e-05  -3.5013867993319980e-04  -1.4724190697875978e-04  -2.9570367438753824e-05  4.2525202921127281e-06  9.0856397916815091e-06  7.5219021520130868e-06  2.5397532259073276e-06  -1.2846572378189272e-05  -5.0383310167486356e-05  -9.9050501100660392e-05  -2.1843092683439747e-05  6.5759024278550784e-04  3.0227321446592249e-03  8.7388049538727666e-03  1.9317349353281384e-02  3.4403454015115222e-02  5.0116649043825442e-02  5.9478496395390421e-02  5.5291552309105131e-02  3.9741596238850034e-02  4.9644258183635112e-03  1.3441000221325203e-01  0.0000000000000000e+00  1.6794995312589242e-01  2.4539052073411496e-01  2.2332070115353736e-01  1.5138671630944431e-01  8.0750565747963785e-02  3.4374837643264329e-02  1.1440113271150137e-02  2.6761446702353920e-03  1.8081943658920856e-04  -2.4244441667316242e-04  -1.9608398666770405e-04  -1.1760149505379031e-04  -7.5800767008064510e-05  -6.4137635834480850e-05  -7.3677166143931369e-05  -9.6913249350496331e-05  -1.0176638444060050e-04  3.7401456309572271e-05  6.7625571700361019e-04  2.5828253638448357e-03  7.0223805029788712e-03  1.5470181977420068e-02  2.8632445179540188e-02  4.5052473262731346e-02  5.9988766135695537e-02  6.6768049778768462e-02  5.9453625564942700e-02  4.0921634528911302e-02  8.6044386482214581e-03  8.8186402452114662e-02  0.0000000000000000e+00  1.5342510053156713e-01  2.3494315821606912e-01  2.3157164297498617e-01  1.7640169485270815e-01  1.1063938252791075e-01  5.8966540450350845e-02  2.7200086107366864e-02  1.0972207447672504e-02  3.8715773427598081e-03  1.1629369879267654e-03  2.5493901688748407e-04  -8.8785064925994808e-06  -6.6880043846247905e-05  -5.8606798424547025e-05  -5.2653909841329917e-06  1.4327545950351209e-04  5.3544894704962481e-04  1.4958672426222661e-03  3.6298404018181244e-03  7.8768078465296688e-03  1.5381297650514407e-02  2.6969780150851878e-02  4.2265265234525944e-02  5.8660424895249398e-02  7.1164181434956120e-02  7.3865006864622343e-02  6.2846468655893772e-02  4.1345249914394491e-02  1.1327403722405108e-02  5.5054336906548040e-02  0.0000000000000000e+00  1.3806961333376574e-01  2.2145267096326621e-01  2.3585035345603758e-01  2.0053269438557467e-01  1.4551624029587260e-01  9.3573440225105289e-02  5.4860682571853760e-02  3.0129133991469690e-02  1.5979321627821532e-02  8.5001921668521364e-03  4.7610660531669331e-03  2.9795706355609927e-03  2.2139574768953825e-03  2.0340994432978461e-03  2.3107983451364725e-03  3.1218618715269921e-03  4.7355360089225938e-03  7.6273581801492886e-03  1.2473403651061697e-02  2.0045664782666877e-02  3.0915556749978531e-02  4.4939492561751213e-02  6.0617610572518937e-02  7.4715721763529058e-02  8.2629041888341692e-02  7.9982053336965772e-02  6.4847361929703529e-02  4.0927526325341919e-02  1.2883878173234801e-02  3.2271841531401765e-02  0.0000000000000000e+00  1.2174442631493171e-01  2.0413358722301089e-01  2.3383689011424408e-01  2.1990184996090792e-01  1.8149666549505555e-01  1.3657006743839686e-01  9.6412818839030759e-02  6.5542139669312924e-02  4.4053476383525213e-02  3.0101942625450739e-02  2.1517765933731066e-02  1.6532938262932066e-02  1.3953209611292658e-02  1.3092796376131062e-02  1.3655938671265012e-02  1.5636963548345803e-02  1.9244231002946421e-02  2.4822637650641299e-02  3.2736488245075301e-02  4.3172399938939961e-02  5.5854655552970346e-02  6.9699882572221081e-02  8.2586146748098402e-02  9.1395816222515733e-02  9.2694785289301460e-02  8.3901631541624486e-02  6.4897380317308920e-02  3.9422223280501677e-02  1.3393351733335630e-02  1.7419536286837439e-02  0.0000000000000000e+00  1.0438829031290076e-01  1.8238810053277876e-01  2.2326690426701623e-01  2.2967433985073657e-01  2.1185321668594825e-01  1.8159966444651232e-01  1.4839163604286487e-01  1.1807667117020597e-01  9.3283318685322331e-02  7.4507609664776736e-02  6.1167292042685256e-02  5.2334923844700162e-02  4.7136090365892884e-02  4.4909362284266646e-02  4.5229554948983321e-02  4.7863510373662863e-02  5.2690592461406158e-02  5.9597729335792500e-02  6.8346805096076671e-02  7.8421748691828594e-02  8.8870446889041624e-02  9.8206598588946342e-02  1.0443340657380734e-01  1.0530722826610830e-01  9.8876860556389751e-02  8.4228384108532742e-02  6.2349132397388499e-02  3.6646259833123737e-02  1.2904441567794146e-02  8.4006251383282396e-03  0.0000000000000000e+00  8.5901448536195982e-02  1.5558831501529236e-01  2.0177250206500952e-01  2.2406623809816284e-01  2.2668449714570171e-01  2.1580806601690655e-01  1.9752775043100373e-01  1.7669799559741889e-01  1.5659384274683893e-01  1.3907483133087920e-01  1.2496096448589494e-01  1.1442098637424634e-01  1.0727575374234950e-01  1.0319345160175625e-01  1.0178969086463854e-01  1.0265831574546716e-01  1.0535583145885800e-01  