<?xml version="1.0"?>
<VTKFile type="UnstructuredGrid"  version="0.1"  >
<UnstructuredGrid>
<Piece  NumberOfPoints="961" NumberOfCells="1800">
<Points>
<DataArray  type="Float64"  NumberOfComponents="3"  format="ascii">-1 -1 0  -0.9333333333333333 -1 0  -0.8666666666666667 -1 0  -0.8 -1 0  -0.7333333333333334 -1 0  -0.6666666666666667 -1 0  -0.6 -1 0  -0.5333333333333333 -1 0  -0.4666666666666667 -1 0  -0.4 -1 0  -0.3333333333333334 -1 0  -0.2666666666666667 -1 0  -0.2 -1 0  -0.1333333333333333 -1 0  -0.06666666666666665 -1 0  0 -1 0  0.06666666666666665 -1 0  0.1333333333333333 -1 0  0.2 -1 0  0.2666666666666666 -1 0  0.3333333333333333 -1 0  0.3999999999999999 -1 0  0.4666666666666666 -1 0  0.5333333333333334 -1 0  0.6000000000000001 -1 0  0.6666666666666667 -1 0  0.7333333333333334 -1 0  0.8 -1 0  0.8666666666666667 -1 0  0.9333333333333333 -1 0  1 -1 0  -1 -0.9333333333333333 0  -0.9333333333333333 -0.9333333333333333 0  -0.8666666666666667 -0.9333333333333333 0  -0.8 -0.9333333333333333 0  -0.7333333333333334 -0.9333333333333333 0  -0.6666666666666667 -0.9333333333333333 0  -0.6 -0.9333333333333333 0  -0.5333333333333333 -0.9333333333333333 0  -0.4666666666666667 -0.9333333333333333 0  -0.4 -0.9333333333333333 0  -0.3333333333333334 -0.9333333333333333 0  -0.2666666666666667 -0.9333333333333333 0  -0.2 -0.9333333333333333 0  -0.1333333333333333 -0.9333333333333333 0  -0.06666666666666665 -0.9333333333333333 0  0 -0.9333333333333333 0  0.06666666666666665 -0.9333333333333333 0  0.1333333333333333 -0.9333333333333333 0  0.2 -0.9333333333333333 0  0.2666666666666666 -0.9333333333333333 0  0.3333333333333333 -0.9333333333333333 0  0.3999999999999999 -0.9333333333333333 0  0.4666666666666666 -0.9333333333333333 0  0.5333333333333334 -0.9333333333333333 0  0.6000000000000001 -0.9333333333333333 0  0.6666666666666667 -0.9333333333333333 0  0.7333333333333334 -0.9333333333333333 0  0.8 -0.9333333333333333 0  0.8666666666666667 -0.9333333333333333 0  0.9333333333333333 -0.9333333333333333 0  1 -0.9333333333333333 0  -1 -0.8666666666666667 0  -0.9333333333333333 -0.8666666666666667 0  -0.8666666666666667 -0.8666666666666667 0  -0.8 -0.8666666666666667 0  -0.7333333333333334 -0.8666666666666667 0  -0.6666666666666667 -0.8666666666666667 0  -0.6 -0.8666666666666667 0  -0.5333333333333333 -0.8666666666666667 0  -0.4666666666666667 -0.8666666666666667 0  -0.4 -0.8666666666666667 0  -0.3333333333333334 -0.8666666666666667 0  -0.2666666666666667 -0.8666666666666667 0  -0.2 -0.8666666666666667 0  -0.1333333333333333 -0.8666666666666667 0  -0.06666666666666665 -0.8666666666666667 0  0 -0.8666666666666667 0  0.06666666666666665 -0.8666666666666667 0  0.1333333333333333 -0.8666666666666667 0  0.2 -0.8666666666666667 0  0.2666666666666666 -0.8666666666666667 0  0.3333333333333333 -0.8666666666666667 0  0.3999999999999999 -0.8666666666666667 0  0.4666666666666666 -0.8666666666666667 0  0.5333333333333334 -0.8666666666666667 0  0.6000000000000001 -0.8666666666666667 0  0.6666666666666667 -0.8666666666666667 0  0.7333333333333334 -0.8666666666666667 0  0.8 -0.8666666666666667 0  0.8666666666666667 -0.8666666666666667 0  0.9333333333333333 -0.8666666666666667 0  1 -0.8666666666666667 0  -1 -0.8 0  -0.9333333333333333 -0.8 0  -0.8666666666666667 -0.8 0  -0.8 -0.8 0  -0.7333333333333334 -0.8 0  -0.6666666666666667 -0.8 0  -0.6 -0.8 0  -0.5333333333333333 -0.8 0  -0.4666666666666667 -0.8 0  -0.4 -0.8 0  -0.3333333333333334 -0.8 0  -0.2666666666666667 -0.8 0  -0.2 -0.8 0  -0.1333333333333333 -0.8 0  -0.06666666666666665 -0.8 0  0 -0.8 0  0.06666666666666665 -0.8 0  0.1333333333333333 -0.8 0  0.2 -0.8 0  0.2666666666666666 -0.8 0  0.3333333333333333 -0.8 0  0.3999999999999999 -0.8 0  0.4666666666666666 -0.8 0  0.5333333333333334 -0.8 0  0.6000000000000001 -0.8 0  0.6666666666666667 -0.8 0  0.7333333333333334 -0.8 0  0.8 -0.8 0  0.8666666666666667 -0.8 0  0.9333333333333333 -0.8 0  1 -0.8 0  -1 -0.7333333333333334 0  -0.9333333333333333 -0.7333333333333334 0  -0.8666666666666667 -0.7333333333333334 0  -0.8 -0.7333333333333334 0  -0.7333333333333334 -0.7333333333333334 0  -0.6666666666666667 -0.7333333333333334 0  -0.6 -0.7333333333333334 0  -0.5333333333333333 -0.7333333333333334 0  -0.4666666666666667 -0.7333333333333334 0  -0.4 -0.7333333333333334 0  -0.3333333333333334 -0.7333333333333334 0  -0.2666666666666667 -0.7333333333333334 0  -0.2 -0.7333333333333334 0  -0.1333333333333333 -0.7333333333333334 0  -0.06666666666666665 -0.7333333333333334 0  0 -0.7333333333333334 0  0.06666666666666665 -0.7333333333333334 0  0.1333333333333333 -0.7333333333333334 0  0.2 -0.7333333333333334 0  0.2666666666666666 -0.7333333333333334 0  0.3333333333333333 -0.7333333333333334 0  0.3999999999999999 -0.7333333333333334 0  0.4666666666666666 -0.7333333333333334 0  0.5333333333333334 -0.7333333333333334 0  0.6000000000000001 -0.7333333333333334 0  0.6666666666666667 -0.7333333333333334 0  0.7333333333333334 -0.7333333333333334 0  0.8 -0.7333333333333334 0  0.8666666666666667 -0.7333333333333334 0  0.9333333333333333 -0.7333333333333334 0  1 -0.7333333333333334 0  -1 -0.6666666666666667 0  -0.9333333333333333 -0.6666666666666667 0  -0.8666666666666667 -0.6666666666666667 0  -0.8 -0.6666666666666667 0  -0.7333333333333334 -0.6666666666666667 0  -0.6666666666666667 -0.6666666666666667 0  -0.6 -0.6666666666666667 0  -0.5333333333333333 -0.6666666666666667 0  -0.4666666666666667 -0.6666666666666667 0  -0.4 -0.6666666666666667 0  -0.3333333333333334 -0.6666666666666667 0  -0.2666666666666667 -0.6666666666666667 0  -0.2 -0.6666666666666667 0  -0.1333333333333333 -0.6666666666666667 0  -0.06666666666666665 -0.6666666666666667 0  0 -0.6666666666666667 0  0.06666666666666665 -0.6666666666666667 0  0.1333333333333333 -0.6666666666666667 0  0.2 -0.6666666666666667 0  0.2666666666666666 -0.6666666666666667 0  0.3333333333333333 -0.6666666666666667 0  0.3999999999999999 -0.6666666666666667 0  0.4666666666666666 -0.6666666666666667 0  0.5333333333333334 -0.6666666666666667 0  0.6000000000000001 -0.6666666666666667 0  0.6666666666666667 -0.6666666666666667 0  0.7333333333333334 -0.6666666666666667 0  0.8 -0.6666666666666667 0  0.8666666666666667 -0.6666666666666667 0  0.9333333333333333 -0.6666666666666667 0  1 -0.6666666666666667 0  -1 -0.6 0  -0.9333333333333333 -0.6 0  -0.8666666666666667 -0.6 0  -0.8 -0.6 0  -0.7333333333333334 -0.6 0  -0.6666666666666667 -0.6 0  -0.6 -0.6 0  -0.5333333333333333 -0.6 0  -0.4666666666666667 -0.6 0  -0.4 -0.6 0  -0.3333333333333334 -0.6 0  -0.2666666666666667 -0.6 0  -0.2 -0.6 0  -0.1333333333333333 -0.6 0  -0.06666666666666665 -0.6 0  0 -0.6 0  0.06666666666666665 -0.6 0  0.1333333333333333 -0.6 0  0.2 -0.6 0  0.2666666666666666 -0.6 0  0.3333333333333333 -0.6 0  0.3999999999999999 -0.6 0  0.4666666666666666 -0.6 0  0.5333333333333334 -0.6 0  0.6000000000000001 -0.6 0  0.6666666666666667 -0.6 0  0.7333333333333334 -0.6 0  0.8 -0.6 0  0.8666666666666667 -0.6 0  0.9333333333333333 -0.6 0  1 -0.6 0  -1 -0.5333333333333333 0  -0.9333333333333333 -0.5333333333333333 0  -0.8666666666666667 -0.5333333333333333 0  -0.8 -0.5333333333333333 0  -0.7333333333333334 -0.5333333333333333 0  -0.6666666666666667 -0.5333333333333333 0  -0.6 -0.5333333333333333 0  -0.5333333333333333 -0.5333333333333333 0  -0.4666666666666667 -0.5333333333333333 0  -0.4 -0.5333333333333333 0  -0.3333333333333334 -0.5333333333333333 0  -0.2666666666666667 -0.5333333333333333 0  -0.2 -0.5333333333333333 0  -0.1333333333333333 -0.5333333333333333 0  -0.06666666666666665 -0.5333333333333333 0  0 -0.5333333333333333 0  0.06666666666666665 -0.5333333333333333 0  0.1333333333333333 -0.5333333333333333 0  0.2 -0.5333333333333333 0  0.2666666666666666 -0.5333333333333333 0  0.3333333333333333 -0.5333333333333333 0  0.3999999999999999 -0.5333333333333333 0  0.4666666666666666 -0.5333333333333333 0  0.5333333333333334 -0.5333333333333333 0  0.6000000000000001 -0.5333333333333333 0  0.6666666666666667 -0.5333333333333333 0  0.7333333333333334 -0.5333333333333333 0  0.8 -0.5333333333333333 0  0.8666666666666667 -0.5333333333333333 0  0.9333333333333333 -0.5333333333333333 0  1 -0.5333333333333333 0  -1 -0.4666666666666667 0  -0.9333333333333333 -0.4666666666666667 0  -0.8666666666666667 -0.4666666666666667 0  -0.8 -0.4666666666666667 0  -0.7333333333333334 -0.4666666666666667 0  -0.6666666666666667 -0.4666666666666667 0  -0.6 -0.4666666666666667 0  -0.5333333333333333 -0.4666666666666667 0  -0.4666666666666667 -0.4666666666666667 0  -0.4 -0.4666666666666667 0  -0.3333333333333334 -0.4666666666666667 0  -0.2666666666666667 -0.4666666666666667 0  -0.2 -0.4666666666666667 0  -0.1333333333333333 -0.4666666666666667 0  -0.06666666666666665 -0.4666666666666667 0  0 -0.4666666666666667 0  0.06666666666666665 -0.4666666666666667 0  0.1333333333333333 -0.4666666666666667 0  0.2 -0.4666666666666667 0  0.2666666666666666 -0.4666666666666667 0  0.3333333333333333 -0.4666666666666667 0  0.3999999999999999 -0.4666666666666667 0  0.4666666666666666 -0.4666666666666667 0  0.5333333333333334 -0.4666666666666667 0  0.6000000000000001 -0.4666666666666667 0  0.6666666666666667 -0.4666666666666667 0  0.7333333333333334 -0.4666666666666667 0  0.8 -0.4666666666666667 0  0.8666666666666667 -0.4666666666666667 0  0.9333333333333333 -0.4666666666666667 0  1 -0.4666666666666667 0  -1 -0.4 0  -0.9333333333333333 -0.4 0  -0.8666666666666667 -0.4 0  -0.8 -0.4 0  -0.7333333333333334 -0.4 0  -0.6666666666666667 -0.4 0  -0.6 -0.4 0  -0.5333333333333333 -0.4 0  -0.4666666666666667 -0.4 0  -0.4 -0.4 0  -0.3333333333333334 -0.4 0  -0.2666666666666667 -0.4 0  -0.2 -0.4 0  -0.1333333333333333 -0.4 0  -0.06666666666666665 -0.4 0  0 -0.4 0  0.06666666666666665 -0.4 0  0.1333333333333333 -0.4 0  0.2 -0.4 0  0.2666666666666666 -0.4 0  0.3333333333333333 -0.4 0  0.3999999999999999 -0.4 0  0.4666666666666666 -0.4 0  0.5333333333333334 -0.4 0  0.6000000000000001 -0.4 0  0.6666666666666667 -0.4 0  0.7333333333333334 -0.4 0 
[...]
<PointData  Scalars="f_24"> 
<DataArray  type="Float64"  Name="f_24"  format="ascii">0.0000000000000000e+00  0.0000000000000000e+00  0.0000000000000000e+00  0.0000000000000000e+00  0.0000000000000000e+00  0.0000000000000000e+00  0.0000000000000000e+00  0.0000000000000000e+00  0.0000000000000000e+00  0.0000000000000000e+00  0.0000000000000000e+00  0.0000000000000000e+00  0.0000000000000000e+00  0.0000000000000000e+00  0.0000000000000000e+00  0.0000000000000000e+00  0.0000000000000000e+00  0.0000000000000000e+00  0.0000000000000000e+00  0.0000000000000000e+00  0.0000000000000000e+00  0.0000000000000000e+00  0.0000000000000000e+00  0.0000000000000000e+00  0.0000000000000000e+00  0.0000000000000000e+00  0.0000000000000000e+00  0.0000000000000000e+00  0.0000000000000000e+00  0.0000000000000000e+00  1.2712537640053345e+01  0.0000000000000000e+00  5.2133423892138979e-02  1.1187638635121633e-01  1.6928116137944157e-01  2.2303929678269091e-01  2.7393149499659214e-01  3.2267501383913910e-01  3.6998370512547019e-01  4.1659338806040364e-01  4.6328425342618806e-01  5.1090929442722355e-01  5.6042191265940711e-01  6.1290838218774768e-01  6.6963121472724307e-01  7.3208822041678290e-01  8.0209415784024729e-01  8.8189440929612217e-01  9.7432400487781046e-01  1.0830319557584911e+00  1.2128010524548845e+00  1.3700093739359347e+00  1.5633059176110795e+00  1.8046168374216802e+00  2.1106767377066640e+00  2.5054268232264030e+00  3.0239201360276229e+00  3.7190182895949513e+00  4.6738386649128483e+00  6.0266568577739248e+00  8.0316583344287054e+00  1.1100415227894530e+01  0.0000000000000000e+00  9.9347024992605407e-02  2.0775555977517771e-01  3.0049836836183386e-01  3.7229909381854642e-01  4.2443400008245297e-01  4.5894489816557571e-01  4.7856347562924029e-01  4.8614646770721809e-01  4.8441291408286141e-01  4.7579061174201098e-01  4.6234607227229330e-01  4.4578510019163281e-01  4.2749597469965678e-01  4.0861867261893525e-01  3.9013275654443286e-01  3.7296337498148185e-01  3.5811476064836845e-01  3.4685283695710467e-01  3.4097665831612367e-01  3.4324919752658295e-01  3.5811178138935634e-01  3.9290304243597218e-01  4.5998154169016192e-01  5.8049159327664268e-01  7.9120480180029751e-01  1.1574414145514667e+00  1.7988211992221292e+00  2.9474826500692206e+00  5.0952193324647146e+00  9.6467130070180609e+00  0.0000000000000000e+00  1.3957317780898432e-01  2.7993458585573738e-01  3.7851834044626537e-01  4.2779574830303213e-01  4.3568727582813177e-01  4.1268888957809158e-01  3.6992210616546606e-01  3.1681574972295118e-01  2.6051836117704052e-01  2.0587761601005863e-01  1.5581102665710592e-01  1.1179751824199959e-01  7.4336435935182438e-02  4.3320699535874349e-02  1.8311300717864503e-02  -1.2735706536086250e-03  -1.6030223878599561e-02  -2.6474463808357870e-02  -3.2945705510684327e-02  -3.5457806095652092e-02  -3.3398231311591434e-02  -2.4869935475338664e-02  -5.2349919232199628e-03  3.6089326266831125e-02  1.2262629856739835e-01  3.0608630781630830e-01  7.0067863824016874e-01  1.5629347363906516e+00  3.5214501047808007e+00  8.3406959456390002e+00  0.0000000000000000e+00  1.7170897891924994e-01  3.2690174679471184e-01  4.0686888197722854e-01  4.0980878280471922e-01  3.6083917462234738e-01  2.8601276059888631e-01  2.0660479166667586e-01  1.3568864187187063e-01  7.9343405484640625e-02  3.8687700115034911e-02  1.2071035777069075e-02  -3.3134277769374279e-03  -1.0438151029877243e-02  -1.1938338233140073e-02  -9.9312802249240367e-03  -6.0109890421062634e-03  -1.3230164158591720e-03  3.3345815790356906e-03  7.4117666499442418e-03  1.0522330781962392e-02  1.2395284301903987e-02  1.2932271369320658e-02  1.2614959500040672e-02  1.4005848022083454e-02  2.6418411184960373e-02  7.9248254222952286e-02  2.5756010079226327e-01  8.0037226927010952e-01  2.3737657709597935e+00  7.1720056797543430e+00  0.0000000000000000e+00  1.9548549087402708e-01  3.5131070611807086e-01  3.9870382053944659e-01  3.5177444836447802e-01  2.6001227844456670e-01  1.6377985225664865e-01  8.6593319234527982e-02  3.5259516533661245e-02  6.9220112454932911e-03  -5.1468859863085274e-03  -7.6562231717210456e-03  -5.7104303852257227e-03  -2.5416203186754581e-03  1.4202369362431989e-04  1.6596641874128662e-03  1.9306132689983851e-03  1.1714028117032025e-03  -2.9175300645444728e-04  -2.1276380393120673e-03  -4.0570348053201935e-03  -5.8958047650122022e-03  -7.6183839025494122e-03  -9.4484161299467784e-03  -1.1744402105297255e-02  -1.3400815066772183e-02  -3.9008944219670570e-03  6.7243531096192383e-02  3.8853785016816467e-01  1.6197813338455369e+00  6.1306605131430105e+00  0.0000000000000000e+00  2.1129073168248572e-01  3.5787057078230594e-01  3.6888651869397071e-01  2.8177984676702789e-01  1.7002893787615914e-01  7.9409591302057811e-02  2.4845763626659679e-02  4.1138433696155896e-04  -5.9222213658119988e-03  -4.5546212955483497e-03  -1.5913171879285268e-03  4.2839450977625335e-04  1.0780323035154030e-03  8.0117199587861692e-04  1.9688635299753912e-04  -2.8204906312492541e-04  -3.9714278472833533e-04  -8.8290520089028251e-05  5.8887047775301772e-04  1.5203285450823205e-03  2.5746313890785038e-03  3.6122947361244169e-03  4.4079215058565133e-03  4.3417354086039348e-03  2.0195186797756369e-03  -2.3835901004242497e-03  1.1799064028484177e-02  1.7710906654426992e-01  1.0792002981642983e+00  5.2070554173658508e+00  0.0000000000000000e+00  2.1994977947703376e-01  3.5169458447695739e-01  3.2958906686948714e-01  2.1665175919687918e-01  1.0385123239795410e-01  3.2045013862752630e-02  1.4732860094817796e-03  -5.1497680007074036e-03  -3.0849645950345901e-03  -4.0867266896830226e-04  6.9125926070258523e-04  5.7806613277111237e-04  1.1361678570554552e-04  -1.8790573279787193e-04  -2.1341571048440552e-04  -7.5974193861172573e-05  5.4640871469979281e-05  4.7368962849146839e-05  -1.5994087187241974e-04  -5.6492333215436906e-04  -1.1166753927487456e-03  -1.7226280510405593e-03  -2.2494366430426686e-03  -2.6227128670866804e-03  -3.5352043921054238e-03  -7.6305717155674959e-03  -1.1868992663971413e-02  6.0155488188847528e-02  7.0519960328649589e-01  4.3919620317656385e+00  0.0000000000000000e+00  2.2251312111503088e-01  3.3731710343634769e-01  2.8898732509780817e-01  1.6352435206163474e-01  6.0651284817767617e-02  9.4800654859261823e-03  -4.1309326166214261e-03  -3.1034396730896608e-03  -3.3696554016581014e-04  5.7955858088391615e-04  3.3569110701997030e-04  -3.7652915179504768e-05  -1.3894757015031341e-04  -5.5546746344968764e-05  4.0529420113602724e-05  6.3040073505663517e-05  2.7913045750082991e-05  1.1401004763535398e-06  4.8736473577241505e-05  2.0949476220400638e-04  4.8675431820145861e-04  8.5054355965505184e-04  1.2716805414769235e-03  1.7859577406986614e-03  2.3698104864495165e-03  1.0757005513559272e-03  -7.1400060947366169e-03  1.2100036848765025e-02  4.4766460093993904e-01  3.6765286634670833e+00  0.0000000000000000e+00  2.2008893532686047e-01  3.1828354878051185e-01  2.5168189233757593e-01  1.2356812364315818e-01  3.4680029497494179e-02  3.6894433827555032e-04  -3.7992811400219878e-03  -9.8339567010064617e-04  4.6146578110128515e-04  3.0262226530742875e-04  -3.3741859867136852e-05  -9.8652244920586460e-05  -1.4560540445854843e-05  3.2353147826050019e-05  1.7642162193892202e-05  -1.3279761952201870e-05  -2.2806661294793330e-05  -1.4844853624279888e-05  -2.1113587018217658e-05  -7.7782222100615685e-05  -2.0867466990722415e-04  -4.1741220932405883e-04  -7.0617348328224467e-04  -1.0113834344522932e-03  -1.0998893513743768e-03  -1.2030674428748168e-03  -7.2835188291281361e-03  -1.2984012434581353e-02  2.6590165362803586e-01  3.0522802873768073e+00  0.0000000000000000e+00  2.1373072171276924e-01  2.9710967938032501e-01  2.1970816010503030e-01  9.5173329098019038e-02  2.0012541818905469e-02  -2.5343577499129509e-03  -2.4004359318800139e-03  9.3394578329906351e-06  3.9902647690884962e-04  2.6204215623334859e-05  -8.0957453487465533e-05  -1.7866543425480147e-05  2.4634358818836871e-05  7.7761782357088066e-06  -8.1757686341376904e-06  -4.8488281687235277e-06  6.4150915346367576e-06  1.0748749218358709e-05  1.2282206032383561e-05  2.9827353643048308e-05  8.6530594478374852e-05  1.9644134694429442e-04  3.6955691658225199e-04  5.3981305115231469e-04  8.3893253409961569e-04  1.5239550397263275e-03  -7.2245700029253848e-04  -1.6065922881925036e-02  1.4941550462914277e-01  2.5111185461833778e+00  0.0000000000000000e+00  2.0437495653950732e-01  2.7542489945012016e-01  1.9351785155920878e-01  7.5910020869027608e-02  1.2193896391789246e-02  -2.9992866398550564e-03  -1.3363824774269486e-03  2.9072726471064908e-04  2.0583725840906685e-04  -6.2220444551658327e-05  -3.5080537033526240e-05  1.3629782685171780e-05  1.0521580999308237e-05  -6.0900706282848878e-06  -2.7825437770951556e-06  2.2618675855272741e-06  9.1455474884594860e-07  -3.9191667390006779e-06  -6.8248112076602062e-06  -1.2382942243729466e-05  -3.4921766017883558e-05  -8.6195916427166531e-05  -1.8488124116124001e-04  -3.0408427334341982e-04  -5.7733691062942659e-04  -2.7223307282737150e-04  -8.9055878705542762e-04  -1.6007454763007918e-02  6.7390685060697231e-02  2.0453217503572736e+00  0.0000000000000000e+00  1.9281632237911567e-01  2.5417548180195920e-01  1.7271019529978127e-01  6.3475960146042218e-02  8.3603420401347668e-03  -2.6982969787781130e-03  -7.5522528848508911e-04  2.9814656886272423e-04  8.5586325634357888e-05  -6.1394165807857653e-05  -4.4136089114634128e-06  1.2010483714432929e-05  -2.4848069638517388e-08  -4.1224476114059775e-06  1.4749327665342020e-06  9.3247279097076852e-07  -6.3351994665277133e-07  2.6618782047628785e-07  2.8098597837017574e-06  5.3491237291400257e-06  1.4219423959561279e-05  3.3988423214425656e-05  9.2293811425182530e-05  1.5796882967664689e-04  2.9021294077799178e-04  3.7934764612056139e-04  1.7480872268829833e-03  -1.0678694955403112e-02  2.1030529012302252e-02  1.6475448781509134e+00  0.0000000000000000e+00  1.7970739403172925e-01  2.3382124435443316e-01  1.5649777985543803e-01  5.6027355302436986e-02  6.8598106068628682e-03  -2.2533724410644805e-03  -5.1048560477596463e-04  2.4131225925955410e-04  3.7589567802591060e-05  -4.3304182856388869e-05  4.0374673510516111e-06  6.2941837686761494e-06  -2.0003803272334781e-06  -1.2840012254869626e-06  1.2367928359384065e-06  -2.3555483007954241e-07  -3.1348022107374119e-07  1.0477851351314919e-07  -6.4387865917144960e-07  -2.0046988541548443e-06  -6.2846395945062599e-06  -1.1098086240358463e-05  -4.7443545240881124e-05  -5.9200941009066203e-05  -2.0442201287766188e-04  -2.5763602341246690e-04  4.9914792638450678e-04  -6.6155298604080991e-03  -1.0310843936499231e-02  1.3108195755986363e+00  0.0000000000000000e+00  1.6557214014272401e-01  2.1449859474699265e-01  1.4396773970273979e-01  5.2203012630630111e-02  6.8347878157375289e-03  -1.8216948561215072e-03  -4.6167420845562627e-04  1.8340084819659080e-04  2.9293622853199927e-05  -2.9494203836248579e-05  2.6391899919921287e-06  3.7050066505358723e-06  -1.2613486084973820e-06  -4.1838839256639745e-07  4.4920754676457908e-07  -1.7584415126133316e-07  1.7126509115290443e-08  7.6832521731102479e-08  1.5674059149902640e-07  3.3509847630166491e-07  3.1301717155299535e-06  1.6919577313735696e-06  2.5557960976583207e-05  1.3420764566487694e-05  1.4942107498985255e-04  -6.7722992484497269e-05  1.1169517766152670e-03  -2.5171408016739249e-03  -2.3490590683247280e-02  1.0285541565167111e+00  0.0000000000000000e+00  1.5082566680596923e-01  1.9614484591872650e-01  1.3420887488940525e-01  5.1026006578271332e-02  7.9075036575628407e-03  -1.3634560562562023e-03  -5.2225945889804496e-04  1.2530092919608871e-04  3.9437190737144078e-05  -1.9608757076569766e-05  -1.5957066735661342e-06  2.7001982661968194e-06  -1.6690584294416900e-07  -2.4541446521852801e-07  7.6654318643178330e-08  -3.5875468024483102e-08  1.0004840952094343e-08  1.5303007726537022e-08  -1.2526888013535165e-07  2.5071516328534691e-07  -2.2259592038138528e-06  2.2554649724210252e-06  -1.5975869692597939e-05  5.7609548048243464e-06  -7.2883133907903619e-05  -6.0989358874875646e-05  -3.7487416878833875e-06  1.2561661952466410e-04  -3.0851926391961149e-02  7.9453360250333405e-01  0.0000000000000000e+00  1.3579561154833888e-01  1.7858867068030562e-01  1.2636169920735157e-01  5.1773256109877215e-02  9.9702605412093585e-03  -7.3851435787170136e-04  -6.3357204385622366e-04  4.6209022207662512e-05  5.4704746605527344e-05  -7.7120526746470793e-06  -5.5932715611717054e-06  9.4976729990687663e-07  5.7466778140360452e-07  3.5780689822920260e-08  8.5038626326694392e-09  -3.1678313192858767e-09  -9.8930625136058701e-09  3.3498742542224520e-08  5.1258524352291713e-08  -3.2426385481064142e-07  1.1679544143585695e-06  -2.8296510111347939e-06  1.0816500608938156e-05  -1.0597688484703476e-05  5.3229729371253730e-05  -1.3906274750748396e-05  8.0686459383554044e-05  1.7623430967935220e-03  -3.0095710865362849e-02  6.0291956293862881e-01  0.0000000000000000e+00  1.2074242240643097e-01  1.6161466450804438e-01  1.1963098947392517e-01  5.3850441946836677e-02  1.3042650275379484e-02  2.7217785318593756e-04  -7.1910147319429710e-04  -7.7623378394590142e-05  5.7281434182960705e-05  1.0379794777027670e-05  -5.2821398713112491e-06  -1.8751479437885360e-06  -1.5072716412151436e-08  6.5356332447336317e-08  -1.8025935201938694e-08  -1.4606245548338222e-08  -8.5381865823194048e-09  1.4976968248446394e-07  -3.0082599995230736e-07  7.1695005109721434e-07  -2.7969098605743570e-06  5.9443412240243992e-06  -1.3487094855744664e-05  2.8744972752846638e-05  -6.3611086089180826e-05  1.1911479167882867e-04  -4.8058216974782318e-04  2.5842468162495381e-03  -2.7799694223566096e-02  4.4825035498464644e-01  0.0000000000000000e+00  1.0587745681439086e-01  1.4500986968581461e-01  1.1328657431871925e-01  5.6686373189769913e-02  1.7155545711233969e-02  1.9606911786781470e-03  -6.2875963606429911e-04  -2.4736472499127911e-04  1.6976542903817850e-05  2.7358861030528622e-05  4.0930721453232412e-06  -1.7842137567293690e-06  -1.1743366641666045e-06  -4.7780507539406629e-07  -1.8082803033916789e-07  1.7060860837338395e-08  1.1039830303305163e-07  1.3604294964266711e-07  -1.7025025716339211e-07  -6.2269648294362290e-07  1.9838873653098710e-07  -1.1003304744355368e-06  4.9401441217747808e-06  3.1049487433950803e-06  -4.9777837608445880e-06  9.0188305828284394e-05  -3.9411812334537888e-04  2.6428846134306208e-03  -2.2764248839904494e-02  3.2544096358536567e-01  0.0000000000000000e+00  9.1378422522446476e-02  1.2859827013389208e-01  1.0666830956200485e-01  5.9654869429589738e-02  2.2234637304390178e-02  4.6559495696139649e-03  -8.3687848567784128e-05  -3.8525382520265551e-04  -9.3594737589851527e-05  1.3040076425145459e-05  1.5601917449219408e-05  5.6013125883954233e-06  1.4567176673650701e-06  5.5688525718559117e-07  5.0014515696204964e-07  5.1319518595211947e-07  3.0277855288334737e-07  -7.2099923620456520e-08  -1.0961026539812101e-06  -6.4453364044123850e-08  -2.6929598170155834e-06  7.6895882999771949e-06  -7.7619223553593114e-06  3.3547549725534674e-05  -5.2907572552747794e-05  1.5718999071689000e-04  -5.2142367338073173e-04  2.4374481135570627e-03  -1.8036943782243679e-02  2.2978304146669271e-01  0.0000000000000000e+00  7.7401946539511143e-02  1.1226803687020061e-01  9.9204694572375865e-02  6.2035197741220169e-02  2.7978123745754566e-02  8.6174892854202021e-03  1.3381366581910077e-03  -2.4543513862338535e-04  -2.2911060438375025e-04  -6.9073028755139567e-05  -4.8275717671275063e-06  6.7078298302989878e-06  5.3472203603501833e-06  3.1587121584584597e-06  1.6593586187390856e-06  4.4277854572600619e-07  -7.4581085445208828e-07  -1.8532347920113300e-06  -2.0333459805513460e-06  -1.4546222721441531e-06  2.6766220115966812e-06  5.0876924499756003e-06  1.1342673130032509e-05  1.6448952137483893e-05  -1.0073083115720674e-05  1.0131801822856695e-04  -3.7643999642336689e-04  1.9137590212669302e-03  -1.3104981117099708e-02  1.5694490913646111e-01  0.0000000000000000e+00  6.4094745008083445e-02  9.5993305646155463e-02  9.0449566539041043e-02  6.3025670120319149e-02  3.3752672341161263e-02  1.3841080961435926e-02  4.0985143902231699e-03  6.4724848586398100e-04  -1.3875083250832086e-04  -1.6213595715817601e-04  -8.2018149203781179e-05  -3.3436448995104601e-05  -1.3902925945474512e-05  -7.5836297195325233e-06  -6.0933281712589570e-06  -6.0852201577342826e-06  -6.0609813035292420e-06  -4.9018436827953411e-06  -2.1451344609922454e-06  3.9380928285766518e-06  8.8848198364185982e-06  2.0470189028030478e-05  1.5094395941012259e-05  3.6526485708947186e-05  -1.6246842503743365e-05  1.0577369811513409e-04  -3.1707568065825805e-04  1.4242991807779546e-03  -9.1019413956661965e-03  1.0297155488443216e-01  0.0000000000000000e+00  5.1600401327210249e-02  7.9852616815310029e-02  8.0135678021019841e-02  6.1825825554299746e-02  3.8563969875143059e-02  1.9818401998595206e-02  8.4088901856911417e-03  2.8822200672816989e-03  7.2354928979803093e-04  6.1023073464275118e-05  -7.6556329741075797e-05  -7.4915276217591833e-05  -5.2561256498625996e-05  -3.5019248809697554e-05  -2.3391639408687266e-05  -1.4741999071166020e-05  -6.5557546091261715e-06  2.5321445485313511e-06  1.3400573404604006e-05  2.3977960595496424e-05  3.5374672634857044e-05  3.9472656036536433e-05  4.2807617367647420e-05  3.6617957799496852e-05  1.5968929332631666e-05  6.1679198261205146e-05  -1.8685631415606992e-04  9.1992011716994504e-04  -5.7911237214543273e-03  6.4284634782294486e-02  0.0000000000000000e+00  4.0069579176460167e-02  6.4042367750234960e-02  6.8240053861573918e-02  5.7791254781824231e-02  4.1174418602657713e-02  2.5385388663715796e-02  1.3803861679158628e-02  6.7285730452853691e-03  2.9880369725297233e-03  1.2312605950554236e-03  4.8249564288909910e-04  1.8797507372238909e-04  8.0654069077898733e-05  4.6253352282824249e-05  3.9864549961365575e-05  4.4761072974759360e-05  5.4514063213111205e-05  6.6198101599017535e-05  7.6989302640757281e-05  8.5497836873567540e-05  8.6966661615468080e-05  8.4226317996952450e-05  6.9104774586387741e-05  5.8269141543255253e-05  2.5163075115756456e-05  5.0866383608350587e-05  -1.1090232164225828e-04  5.4839788327925470e-04  -3.4116297577533902e-03  3.7682472683664266e-02  0.0000000000000000e+00  2.9658096091163929e-02  4.8883932262729121e-02  5.5045665103710964e-02  5.0644239363146451e-02  4.0417953025795039e-02  2.8863580960036307e-02  1.8858566254100310e-02  1.1503603185298909e-02  6.6926144541213104e-03  3.8043199021213958e-03  2.1718812746482890e-03  1.2832239096660487e-03  8.0757398745910083e-04  5.5290765944087132e-04  4.1453286673740646e-04  3.3700917202836859e-04  2.9078175543615579e-04  2.5934825887715323e-04  2.3352532996490132e-04  2.0671351944654263e-04  1.7792441049771680e-04  1.4319598107962554e-04  1.0963929932337949e-04  7.3079811596846121e-05  4.3810889668068405e-05  3.2075377076026145e-05  -4.2594582522991648e-05  2.7312730498043025e-04  -1.7779653492262621e-03  2.0340060224085334e-02  0.0000000000000000e+00  2.0542990896124273e-02  3.4824936146743930e-02  4.1187316727268504e-02  4.0691611253142863e-02  3.5679252010572551e-02  2.8636027831589805e-02  2.1481383711341461e-02  1.5324801731436372e-02  1.0568025648430132e-02  7.1589331416572000e-03  4.8390516874194630e-03  3.3108554052445212e-03  2.3194230429844994e-03  1.6758918968328913e-03  1.2515368769021797e-03  9.6305431509814178e-04  7.5788318418823551e-04  6.0371678747478212e-04  4.8046966393392560e-04  3.7752944262209011e-04  2.8752138410685787e-04  2.1057029443601329e-04  1.4344520673485636e-04  9.1301100275799883e-05  4.9911798406079453e-05  2.8006850044987005e-05  -9.8133849538780842e-06  1.1361166716387212e-04  -7.9456787291311368e-04  9.8090568210288057e-03  0.0000000000000000e+00  1.2898862890293806e-02  2.2415557524887511e-02  2.7642380415712240e-02  2.8963857643965633e-02  2.7379051984093128e-02  2.4046502946691382e-02  1.9986546004890127e-02  1.5936533193232766e-02  1.2329197197788338e-02  9.3468657914661194e-03  7.0041368982288318e-03  5.2256880933232754e-03  3.9029313732275223e-03  