<?xml version="1.0"?>
<VTKFile type="UnstructuredGrid"  version="0.1"  >
<UnstructuredGrid>
<Piece  NumberOfPoints="961" NumberOfCells="1800">
<Points>
<DataArray  type="Float64"  NumberOfComponents="3"  format="ascii">-1 -1 0  -0.9333333333333333 -1 0  -0.8666666666666667 -1 0  -0.8 -1 0  -0.7333333333333334 -1 0  -0.6666666666666667 -1 0  -0.6 -1 0  -0.5333333333333333 -1 0  -0.4666666666666667 -1 0  -0.4 -1 0  -0.3333333333333334 -1 0  -0.2666666666666667 -1 0  -0.2 -1 0  -0.1333333333333333 -1 0  -0.06666666666666665 -1 0  0 -1 0  0.06666666666666665 -1 0  0.1333333333333333 -1 0  0.2 -1 0  0.2666666666666666 -1 0  0.3333333333333333 -1 0  0.3999999999999999 -1 0  0.4666666666666666 -1 0  0.5333333333333334 -1 0  0.6000000000000001 -1 0  0.6666666666666667 -1 0  0.7333333333333334 -1 0  0.8 -1 0  0.8666666666666667 -1 0  0.9333333333333333 -1 0  1 -1 0  -1 -0.9333333333333333 0  -0.9333333333333333 -0.9333333333333333 0  -0.8666666666666667 -0.9333333333333333 0  -0.8 -0.9333333333333333 0  -0.7333333333333334 -0.9333333333333333 0  -0.6666666666666667 -0.9333333333333333 0  -0.6 -0.9333333333333333 0  -0.5333333333333333 -0.9333333333333333 0  -0.4666666666666667 -0.9333333333333333 0  -0.4 -0.9333333333333333 0  -0.3333333333333334 -0.9333333333333333 0  -0.2666666666666667 -0.9333333333333333 0  -0.2 -0.9333333333333333 0  -0.1333333333333333 -0.9333333333333333 0  -0.06666666666666665 -0.9333333333333333 0  0 -0.9333333333333333 0  0.06666666666666665 -0.9333333333333333 0  0.1333333333333333 -0.9333333333333333 0  0.2 -0.9333333333333333 0  0.2666666666666666 -0.9333333333333333 0  0.3333333333333333 -0.9333333333333333 0  0.3999999999999999 -0.9333333333333333 0  0.4666666666666666 -0.9333333333333333 0  0.5333333333333334 -0.9333333333333333 0  0.6000000000000001 -0.9333333333333333 0  0.6666666666666667 -0.9333333333333333 0  0.7333333333333334 -0.9333333333333333 0  0.8 -0.9333333333333333 0  0.8666666666666667 -0.9333333333333333 0  0.9333333333333333 -0.9333333333333333 0  1 -0.9333333333333333 0  -1 -0.8666666666666667 0  -0.9333333333333333 -0.8666666666666667 0  -0.8666666666666667 -0.8666666666666667 0  -0.8 -0.8666666666666667 0  -0.7333333333333334 -0.8666666666666667 0  -0.6666666666666667 -0.8666666666666667 0  -0.6 -0.8666666666666667 0  -0.5333333333333333 -0.8666666666666667 0  -0.4666666666666667 -0.8666666666666667 0  -0.4 -0.8666666666666667 0  -0.3333333333333334 -0.8666666666666667 0  -0.2666666666666667 -0.8666666666666667 0  -0.2 -0.8666666666666667 0  -0.1333333333333333 -0.8666666666666667 0  -0.06666666666666665 -0.8666666666666667 0  0 -0.8666666666666667 0  0.06666666666666665 -0.8666666666666667 0  0.1333333333333333 -0.8666666666666667 0  0.2 -0.8666666666666667 0  0.2666666666666666 -0.8666666666666667 0  0.3333333333333333 -0.8666666666666667 0  0.3999999999999999 -0.8666666666666667 0  0.4666666666666666 -0.8666666666666667 0  0.5333333333333334 -0.8666666666666667 0  0.6000000000000001 -0.8666666666666667 0  0.6666666666666667 -0.8666666666666667 0  0.7333333333333334 -0.8666666666666667 0  0.8 -0.8666666666666667 0  0.8666666666666667 -0.8666666666666667 0  0.9333333333333333 -0.8666666666666667 0  1 -0.8666666666666667 0  -1 -0.8 0  -0.9333333333333333 -0.8 0  -0.8666666666666667 -0.8 0  -0.8 -0.8 0  -0.7333333333333334 -0.8 0  -0.6666666666666667 -0.8 0  -0.6 -0.8 0  -0.5333333333333333 -0.8 0  -0.4666666666666667 -0.8 0  -0.4 -0.8 0  -0.3333333333333334 -0.8 0  -0.2666666666666667 -0.8 0  -0.2 -0.8 0  -0.1333333333333333 -0.8 0  -0.06666666666666665 -0.8 0  0 -0.8 0  0.06666666666666665 -0.8 0  0.1333333333333333 -0.8 0  0.2 -0.8 0  0.2666666666666666 -0.8 0  0.3333333333333333 -0.8 0  0.3999999999999999 -0.8 0  0.4666666666666666 -0.8 0  0.5333333333333334 -0.8 0  0.6000000000000001 -0.8 0  0.6666666666666667 -0.8 0  0.7333333333333334 -0.8 0  0.8 -0.8 0  0.8666666666666667 -0.8 0  0.9333333333333333 -0.8 0  1 -0.8 0  -1 -0.7333333333333334 0  -0.9333333333333333 -0.7333333333333334 0  -0.8666666666666667 -0.7333333333333334 0  -0.8 -0.7333333333333334 0  -0.7333333333333334 -0.7333333333333334 0  -0.6666666666666667 -0.7333333333333334 0  -0.6 -0.7333333333333334 0  -0.5333333333333333 -0.7333333333333334 0  -0.4666666666666667 -0.7333333333333334 0  -0.4 -0.7333333333333334 0  -0.3333333333333334 -0.7333333333333334 0  -0.2666666666666667 -0.7333333333333334 0  -0.2 -0.7333333333333334 0  -0.1333333333333333 -0.7333333333333334 0  -0.06666666666666665 -0.7333333333333334 0  0 -0.7333333333333334 0  0.06666666666666665 -0.7333333333333334 0  0.1333333333333333 -0.7333333333333334 0  0.2 -0.7333333333333334 0  0.2666666666666666 -0.7333333333333334 0  0.3333333333333333 -0.7333333333333334 0  0.3999999999999999 -0.7333333333333334 0  0.4666666666666666 -0.7333333333333334 0  0.5333333333333334 -0.7333333333333334 0  0.6000000000000001 -0.7333333333333334 0  0.6666666666666667 -0.7333333333333334 0  0.7333333333333334 -0.7333333333333334 0  0.8 -0.7333333333333334 0  0.8666666666666667 -0.7333333333333334 0  0.9333333333333333 -0.7333333333333334 0  1 -0.7333333333333334 0  -1 -0.6666666666666667 0  -0.9333333333333333 -0.6666666666666667 0  -0.8666666666666667 -0.6666666666666667 0  -0.8 -0.6666666666666667 0  -0.7333333333333334 -0.6666666666666667 0  -0.6666666666666667 -0.6666666666666667 0  -0.6 -0.6666666666666667 0  -0.5333333333333333 -0.6666666666666667 0  -0.4666666666666667 -0.6666666666666667 0  -0.4 -0.6666666666666667 0  -0.3333333333333334 -0.6666666666666667 0  -0.2666666666666667 -0.6666666666666667 0  -0.2 -0.6666666666666667 0  -0.1333333333333333 -0.6666666666666667 0  -0.06666666666666665 -0.6666666666666667 0  0 -0.6666666666666667 0  0.06666666666666665 -0.6666666666666667 0  0.1333333333333333 -0.6666666666666667 0  0.2 -0.6666666666666667 0  0.2666666666666666 -0.6666666666666667 0  0.3333333333333333 -0.6666666666666667 0  0.3999999999999999 -0.6666666666666667 0  0.4666666666666666 -0.6666666666666667 0  0.5333333333333334 -0.6666666666666667 0  0.6000000000000001 -0.6666666666666667 0  0.6666666666666667 -0.6666666666666667 0  0.7333333333333334 -0.6666666666666667 0  0.8 -0.6666666666666667 0  0.8666666666666667 -0.6666666666666667 0  0.9333333333333333 -0.6666666666666667 0  1 -0.6666666666666667 0  -1 -0.6 0  -0.9333333333333333 -0.6 0  -0.8666666666666667 -0.6 0  -0.8 -0.6 0  -0.7333333333333334 -0.6 0  -0.6666666666666667 -0.6 0  -0.6 -0.6 0  -0.5333333333333333 -0.6 0  -0.4666666666666667 -0.6 0  -0.4 -0.6 0  -0.3333333333333334 -0.6 0  -0.2666666666666667 -0.6 0  -0.2 -0.6 0  -0.1333333333333333 -0.6 0  -0.06666666666666665 -0.6 0  0 -0.6 0  0.06666666666666665 -0.6 0  0.1333333333333333 -0.6 0  0.2 -0.6 0  0.2666666666666666 -0.6 0  0.3333333333333333 -0.6 0  0.3999999999999999 -0.6 0  0.4666666666666666 -0.6 0  0.5333333333333334 -0.6 0  0.6000000000000001 -0.6 0  0.6666666666666667 -0.6 0  0.7333333333333334 -0.6 0  0.8 -0.6 0  0.8666666666666667 -0.6 0  0.9333333333333333 -0.6 0  1 -0.6 0  -1 -0.5333333333333333 0  -0.9333333333333333 -0.5333333333333333 0  -0.8666666666666667 -0.5333333333333333 0  -0.8 -0.5333333333333333 0  -0.7333333333333334 -0.5333333333333333 0  -0.6666666666666667 -0.5333333333333333 0  -0.6 -0.5333333333333333 0  -0.5333333333333333 -0.5333333333333333 0  -0.4666666666666667 -0.5333333333333333 0  -0.4 -0.5333333333333333 0  -0.3333333333333334 -0.5333333333333333 0  -0.2666666666666667 -0.5333333333333333 0  -0.2 -0.5333333333333333 0  -0.1333333333333333 -0.5333333333333333 0  -0.06666666666666665 -0.5333333333333333 0  0 -0.5333333333333333 0  0.06666666666666665 -0.5333333333333333 0  0.1333333333333333 -0.5333333333333333 0  0.2 -0.5333333333333333 0  0.2666666666666666 -0.5333333333333333 0  0.3333333333333333 -0.5333333333333333 0  0.3999999999999999 -0.5333333333333333 0  0.4666666666666666 -0.5333333333333333 0  0.5333333333333334 -0.5333333333333333 0  0.6000000000000001 -0.5333333333333333 0  0.6666666666666667 -0.5333333333333333 0  0.7333333333333334 -0.5333333333333333 0  0.8 -0.5333333333333333 0  0.8666666666666667 -0.5333333333333333 0  0.9333333333333333 -0.5333333333333333 0  1 -0.5333333333333333 0  -1 -0.4666666666666667 0  -0.9333333333333333 -0.4666666666666667 0  -0.8666666666666667 -0.4666666666666667 0  -0.8 -0.4666666666666667 0  -0.7333333333333334 -0.4666666666666667 0  -0.6666666666666667 -0.4666666666666667 0  -0.6 -0.4666666666666667 0  -0.5333333333333333 -0.4666666666666667 0  -0.4666666666666667 -0.4666666666666667 0  -0.4 -0.4666666666666667 0  -0.3333333333333334 -0.4666666666666667 0  -0.2666666666666667 -0.4666666666666667 0  -0.2 -0.4666666666666667 0  -0.1333333333333333 -0.4666666666666667 0  -0.06666666666666665 -0.4666666666666667 0  0 -0.4666666666666667 0  0.06666666666666665 -0.4666666666666667 0  0.1333333333333333 -0.4666666666666667 0  0.2 -0.4666666666666667 0  0.2666666666666666 -0.4666666666666667 0  0.3333333333333333 -0.4666666666666667 0  0.3999999999999999 -0.4666666666666667 0  0.4666666666666666 -0.4666666666666667 0  0.5333333333333334 -0.4666666666666667 0  0.6000000000000001 -0.4666666666666667 0  0.6666666666666667 -0.4666666666666667 0  0.7333333333333334 -0.4666666666666667 0  0.8 -0.4666666666666667 0  0.8666666666666667 -0.4666666666666667 0  0.9333333333333333 -0.4666666666666667 0  1 -0.4666666666666667 0  -1 -0.4 0  -0.9333333333333333 -0.4 0  -0.8666666666666667 -0.4 0  -0.8 -0.4 0  -0.7333333333333334 -0.4 0  -0.6666666666666667 -0.4 0  -0.6 -0.4 0  -0.5333333333333333 -0.4 0  -0.4666666666666667 -0.4 0  -0.4 -0.4 0  -0.3333333333333334 -0.4 0  -0.2666666666666667 -0.4 0  -0.2 -0.4 0  -0.1333333333333333 -0.4 0  -0.06666666666666665 -0.4 0  0 -0.4 0  0.06666666666666665 -0.4 0  0.1333333333333333 -0.4 0  0.2 -0.4 0  0.2666666666666666 -0.4 0  0.3333333333333333 -0.4 0  0.3999999999999999 -0.4 0  0.4666666666666666 -0.4 0  0.5333333333333334 -0.4 0  0.6000000000000001 -0.4 0  0.6666666666666667 -0.4 0  0.7333333333333334 -0.4 0 
[...]
<PointData  Scalars="f_24"> 
<DataArray  type="Float64"  Name="f_24"  format="ascii">0.0000000000000000e+00  0.0000000000000000e+00  0.0000000000000000e+00  0.0000000000000000e+00  0.0000000000000000e+00  0.0000000000000000e+00  0.0000000000000000e+00  0.0000000000000000e+00  0.0000000000000000e+00  0.0000000000000000e+00  0.0000000000000000e+00  0.0000000000000000e+00  0.0000000000000000e+00  0.0000000000000000e+00  0.0000000000000000e+00  0.0000000000000000e+00  0.0000000000000000e+00  0.0000000000000000e+00  0.0000000000000000e+00  0.0000000000000000e+00  0.0000000000000000e+00  0.0000000000000000e+00  0.0000000000000000e+00  0.0000000000000000e+00  0.0000000000000000e+00  0.0000000000000000e+00  0.0000000000000000e+00  0.0000000000000000e+00  0.0000000000000000e+00  0.0000000000000000e+00  1.3840356689771859e+01  0.0000000000000000e+00  4.6727514711303814e-03  2.0709529459633461e-02  4.8772558312714862e-02  8.6652348872662183e-02  1.3188261475652047e-01  1.8247560801168092e-01  2.3700005081400660e-01  2.9454251913871460e-01  3.5464662406371950e-01  4.1725809551644172e-01  4.8268574100458606e-01  5.5158162953851642e-01  6.2494341841284118e-01  7.0414276733003389e-01  7.9098562033915198e-01  8.8781321598223262e-01  9.9765740963037985e-01  1.1244711374281278e+00  1.2734660823333588e+00  1.4516072684974710e+00  1.6683428725251308e+00  1.9366956463181990e+00  2.2749272584713225e+00  2.7091477778243078e+00  3.2775657438986614e+00  4.0377832371435511e+00  5.0803377098441818e+00  6.5558641651681455e+00  8.7411243098321023e+00  1.2085211506047568e+01  0.0000000000000000e+00  8.5878962141475116e-03  3.5794834880285134e-02  8.0486411467030228e-02  1.3493442933398431e-01  1.9154995670498584e-01  2.4467491459074112e-01  2.9074362535020593e-01  3.2798704390873351e-01  3.5597601881144159e-01  3.7517746886798825e-01  3.8658962052255863e-01  3.9147538658560987e-01  3.9119036601845997e-01  3.8709177521003407e-01  3.8051429984808788e-01  3.7280427297332991e-01  3.6541306700376575e-01  3.6006478176077289e-01  3.5903490868578264e-01  3.6561171252442309e-01  3.8487209452991222e-01  4.2500999159297193e-01  4.9965042154298134e-01  6.3195268322309261e-01  8.6206462168609976e-01  1.2611869909177063e+00  1.9596351491176118e+00  3.2101457836991001e+00  5.5483354187430614e+00  1.0502541088281991e+01  0.0000000000000000e+00  1.1338769085235414e-02  4.3896289432604957e-02  9.2101223688518308e-02  1.4144412965295552e-01  1.8050693136426235e-01  2.0349666668284186e-01  2.0951306494824148e-01  2.0084455313327684e-01  1.8127123447867841e-01  1.5483150179600350e-01  1.2509975101356111e-01  9.4876065159442288e-02  6.6144343789251145e-02  4.0173188203022306e-02  1.7673003347294863e-02  -1.0402181833640799e-03  -1.5895089223717972e-02  -2.6928182226995546e-02  -3.4140131834983239e-02  -3.7295982793179021e-02  -3.5566077029409678e-02  -2.6784411337621963e-02  -5.8441605485967125e-03  3.8805401558207719e-02  1.3278172579959435e-01  3.3238840280943432e-01  7.6193228490561848e-01  1.7007752393187920e+00  3.8329908451938106e+00  9.0806580241593178e+00  0.0000000000000000e+00  1.2860143119654803e-02  4.5806200677834905e-02  8.8247747371978255e-02  1.2133740234162281e-01  1.3480874750970528e-01  1.2823380609221577e-01  1.0728414060265457e-01  7.9472310569210933e-02  5.1291305632777992e-02  2.7032349730584316e-02  8.7577395384877774e-03  -3.1664307314793550e-03  -9.4172974886625859e-03  -1.1166262226593645e-02  -9.7036769404540164e-03  -6.2249827129646686e-03  -1.7362162726378290e-03  2.9642149328800980e-03  7.2612151705479704e-03  1.0682039256931342e-02  1.2871446693476856e-02  1.3667965686648862e-02  1.3553236759221031e-02  1.5285317598748889e-02  2.8988208165847615e-02  8.6640820743929634e-02  2.8089203827909232e-01  8.7183504239003229e-01  2.5850308038299459e+00  7.8082849860064023e+00  0.0000000000000000e+00  1.3285182540515869e-02  4.3297095580669381e-02  7.5802400281473212e-02  9.1686472163418964e-02  8.6059503313125923e-02  6.5524207381266131e-02  4.0308262720743344e-02  1.8408417247567300e-02  3.5895041481434579e-03  -3.9456079803381434e-03  -5.9587052469597494e-03  -4.7515933085390026e-03  -2.3155583802495785e-03  -5.5384039003804486e-06  1.4573510134515914e-03  1.8384894745907907e-03  1.2147594501350177e-03  -1.7328021694474932e-04  -2.0276966368224254e-03  -4.0661545919507321e-03  -6.0837455255212574e-03  -8.0347191555920367e-03  -1.0140570977374103e-02  -1.2768205693177961e-02  -1.4702257227260852e-02  -4.4581402872567386e-03  7.2878083985803060e-02  4.2271768578709273e-01  1.7629284479559821e+00  6.6745547307927575e+00  0.0000000000000000e+00  1.2854099321435178e-02  3.8252665125017557e-02  6.0522086280142093e-02  6.3555177250143965e-02  4.8882565133810618e-02  2.7626168796015413e-02  9.8127380831506961e-03  -3.7143239036006902e-04  -3.7088131561957721e-03  -3.0849459531645147e-03  -1.2226027528735254e-03  2.6763798517759677e-04  8.6236403844823506e-04  7.1036701365489964e-04  2.1516243968520954e-04  -2.3415781078160144e-04  -3.8133498447799879e-04  -1.2140839887665995e-04  5.2967420524405054e-04  1.4801078650313697e-03  2.6027774810934989e-03  3.7480157123819468e-03  4.6644204375444875e-03  4.6633916675987274e-03  2.2243921982955605e-03  -2.5027361586721481e-03  1.3057244925040559e-02  1.9298055387148524e-01  1.1753876182277718e+00  5.6690101001305546e+00  0.0000000000000000e+00  1.1838077310477656e-02  3.2194090965734196e-02  4.5963774295110844e-02  4.1529391973961167e-02  2.5305898970433286e-02  9.2276022307242467e-03  -3.6469828201010891e-05  -2.6151421169173378e-03  -1.7414325599532977e-03  -2.9486233283005519e-04  4.4154322430558856e-04  4.3296244252580176e-04  1.1505445210452363e-04  -1.3702008350228927e-04  -1.8378920902429550e-04  -7.7761675036678318e-05  4.5004152993747179e-05  5.3708587101910980e-05  -1.3121559019774081e-04  -5.2711038385505496e-04  -1.0957656564929206e-03  -1.7461619154281239e-03  -2.3365691462675590e-03  -2.7789372707148138e-03  -3.8339650761017503e-03  -8.3333371664971664e-03  -1.3061750681020516e-02  6.5414975497612549e-02  7.6741448438915827e-01  4.7816040202746244e+00  0.0000000000000000e+00  1.0486360767477696e-02  2.6139954946667081e-02  3.3748758281603841e-02  2.6118253783818251e-02  1.2112864271532674e-02  1.8847931718194541e-03  -1.7346353320072509e-03  -1.3606604708130945e-03  -1.9786365360079352e-04  3.1493515550245208e-04  2.2120140958835737e-04  -7.0176298280528520e-06  -9.7703656272904763e-05  -5.0238036425346405e-05  2.6080966299191546e-05  5.2818584788080924e-05  2.6988596442078848e-05  -1.4146843370051331e-07  3.6705534080088133e-05  1.8518907275830390e-04  4.5985596926128192e-04  8.3800923264514709e-04  1.2955600674731107e-03  1.8681546695013653e-03  2.5445014090409303e-03  1.1538646261368445e-03  -7.6873304676781740e-03  1.3194747832583171e-02  4.8764058074605143e-01  4.0026995021224661e+00  0.0000000000000000e+00  8.9988552144650794e-03  2.0658894444930805e-02  2.4250072760566323e-02  1.6090153100038838e-02  5.3991747546413490e-03  -4.1118219998840968e-04  -1.2716414749013999e-03  -3.7366450947558851e-04  1.8876879989224949e-04  1.6306252462220275e-04  -7.2601377455325552e-06  -5.8727701406903087e-05  -1.6197444872185694e-05  2.0801504604947287e-05  1.5489572125549011e-05  -7.9386380531684947e-06  -1.8513246472387198e-05  -1.2853139055258053e-05  -1.6141656230902352e-05  -6.4735981249877640e-05  -1.8823739581728428e-04  -3.9723591851619378e-04  -7.0252864597336964e-04  -1.0329878396252445e-03  -1.1549853825950141e-03  -1.2689295560436905e-03  -7.9777856127224971e-03  -1.4124201776777081e-02  2.8930698880783101e-01  3.3230696412142229e+00  0.0000000000000000e+00  7.5188966756137877e-03  1.5993188709432511e-02  1.7211045415218090e-02  9.8679092577410830e-03  2.2432060340979517e-03  -8.1723630775265251e-04  -6.5574926238408100e-04  7.4095059522249740e-06  1.4907428394802819e-04  2.3676711779158916e-05  -3.8606820818588184e-05  -1.2973872441591018e-05  1.2167697424809314e-05  7.0459231159525689e-06  -4.7803319795717242e-06  -4.2855412775608870e-06  3.8698658177050736e-06  8.3541480713846213e-06  9.6440610802324546e-06  2.3508768779861520e-05  7.4009353827034528e-05  1.7890395890232812e-04  3.5611584234754583e-04  5.3155145185740350e-04  8.7188124371736576e-04  1.6079614322886857e-03  -7.6677111593236404e-04  -1.7521126847986280e-02  1.6279162714502143e-01  2.7338976177327141e+00  0.0000000000000000e+00  6.1382656543168129e-03  1.2182259202721814e-02  1.2150322259045965e-02  6.1184731620401800e-03  8.6659704665051048e-04  -6.8042193618577729e-04  -2.8539182515080409e-04  8.5051016389365243e-05  6.6106376124379411e-05  -1.6426625065880201e-05  -1.7450753981055410e-05  4.9882494878458890e-06  5.6177056621704781e-06  -2.1545377328116252e-06  -2.3315089022916088e-06  1.2360045940610216e-06  9.3949478982416328e-07  -2.4287124648630199e-06  -5.0415013194274774e-06  -9.2981150199162359e-06  -2.8265480977912884e-05  -7.3992854799833393e-05  -1.7150025557769236e-04  -2.8825604206666311e-04  -5.9279179272717997e-04  -2.4493358544799685e-04  -9.6961986307302908e-04  -1.7390676766154502e-02  7.3300405887779668e-02  2.2267766965034053e+00  0.0000000000000000e+00  4.9076208460167260e-03  9.1576790305608682e-03  8.5751778848292600e-03  3.8905203731063672e-03  3.1517337807886289e-04  -4.7039827222168038e-04  -1.1457563235608048e-04  7.0851056133183445e-05  2.1687792435308145e-05  -1.5824264300949439e-05  -3.6865409712539979e-06  4.6864692681033150e-06  3.0266991717436572e-07  -1.6555794546340650e-06  2.9200031067644896e-07  6.9052019800332767e-07  -3.3051406427572948e-07  4.0917387005037910e-08  1.7795762231278123e-06  3.7217227282736274e-06  1.1037700792805625e-05  2.6619304244763633e-05  8.2902561756318573e-05  1.4158716427000595e-04  2.8730539049798731e-04  3.6715406260391876e-04  1.8899242108555338e-03  -1.1663380871822176e-02  2.2925751151196900e-02  1.7937102269944329e+00  0.0000000000000000e+00  3.8478813731939749e-03  6.8057498436748954e-03  6.0693739049249990e-03  2.5661292004803414e-03  1.2116445068044901e-04  -3.0779523486305845e-04  -4.8457883953086835e-05  4.5314007418830727e-05  5.9483522735115034e-06  -9.0655633918359952e-06  2.1984726311927748e-07  2.0616909303726314e-06  -6.1751199111820101e-07  -4.0156689994372159e-07  3.6742077715096113e-07  -1.7627468775675692e-08  -1.7973013369174832e-07  6.2984001729832513e-08  -3.6199734079728794e-07  -1.1433643632103434e-06  -4.7918176740107802e-06  -6.9966318161329963e-06  -4.2380342156603036e-05  -4.5083283745840594e-05  -2.0194562973060537e-04  -2.4470347549045217e-04  5.6339469625494903e-04  -7.1695076221094051e-03  -1.1226868445946706e-02  1.4271116433165869e+00  0.0000000000000000e+00  2.9602460471131343e-03  5.0038179653489473e-03  4.3137365301214982e-03  1.7667012730173113e-03  7.1061166892283213e-05  -2.0068841316548327e-04  -2.7137110685449261e-05  2.6983677896517270e-05  2.2475424672734901e-06  -4.6224624509822145e-06  4.6885660892986097e-07  7.6560592967314623e-07  -3.4102148246497677e-07  -3.9300665533574308e-08  1.0827611946693802e-07  -5.5521556178246824e-08  3.4547207323594760e-09  3.0164369140474068e-08  1.0512263913980425e-07  2.9875721446203162e-08  2.5712575256677883e-06  -4.5051702818055318e-07  2.3236707978637598e-05  2.9022858765470852e-06  1.4756568877146350e-04  -1.0003946757320179e-04  1.1927507219462543e-03  -2.7673163874016495e-03  -2.5591963008410098e-02  1.1198044642233191e+00  0.0000000000000000e+00  2.2340158356173334e-03  3.6386009189373681e-03  3.0771104560529685e-03  1.2687745065897663e-03  7.3124842058373197e-05  -1.3214380356251203e-04  -2.2229965371460861e-05  1.5658234173068853e-05  2.1339494932795140e-06  -2.3418199921709400e-06  7.2672164516890345e-08  3.1682073453741616e-07  -9.9534258947217297e-08  -6.1473527327041550e-09  1.7660098606123084e-08  -1.1304815465845029e-08  3.5971660279068995e-09  1.3630711140088452e-08  -1.1610677542346647e-07  3.8884029551554744e-07  -1.9877138853990287e-06  3.4848367725903498e-06  -1.5528767355302402e-05  1.1269360883315339e-05  -7.0756804098434225e-05  -5.1610896433916141e-05  1.7202484786033774e-05  1.5568273283627927e-04  -3.3561521894593167e-02  8.6502229311074119e-01  0.0000000000000000e+00  1.6522080489999658e-03  2.6135500375193883e-03  2.1979875838670595e-03  9.4354086410628401e-04  8.9897910745692576e-05  -8.6131853091497094e-05  -2.2065834462909561e-05  8.2873627246596671e-06  2.5584863922685026e-06  -1.0575084550624853e-06  -2.0146948527492201e-07  1.2753845794612953e-07  -1.6792228857555663e-09  -5.1593741472070323e-09  1.2209138926156276e-10  3.7784262274310422e-09  -1.1249133138838583e-08  1.6731396984271138e-08  2.8645844150644688e-08  -2.7890244368991772e-07  1.2951955383974006e-06  -3.2941900295564175e-06  1.0274017766201318e-05  -1.4824844732235359e-05  4.9805022549057695e-05  -2.4814069330117707e-05  6.7452618042723706e-05  1.9060922016213967e-03  -3.2797200637894562e-02  6.5640881801762441e-01  0.0000000000000000e+00  1.1953129962733067e-03  1.8502072350637341e-03  1.5660599532105457e-03  7.1788794015696883e-04  1.0660061178653159e-04  -5.2338593006864397e-05  -2.2055025902988015e-05  2.8177806608046738e-06  2.5672667426247171e-06  -1.6500741078245044e-07  -2.5041406859844806e-07  4.6874644739725230e-09  1.4555167211422136e-08  1.4894736106601765e-09  -2.8763730469632903e-09  9.9195165265253515e-09  -3.0311872299241407e-08  9.6171058025676897e-08  -3.0998051627165479e-07  9.4296134379475150e-07  -2.6194386251107835e-06  6.3653963958892675e-06  -1.4892720752349858e-05  2.9155922757908405e-05  -6.7771475620273484e-05  1.2934282155468822e-04  -5.0935276581353436e-04  2.8188043105898935e-03  -3.0235805614706467e-02  4.8801781162540014e-01  0.0000000000000000e+00  8.4363928924654401e-04  1.2866748282289624e-03  1.1070016704993585e-03  5.5086746516154114e-04  1.1742016853486705e-04  -2.5391636295626609e-05  -2.0281718714253345e-05  -1.5109057259616371e-06  1.8641819768709497e-06  4.3629325953569758e-07  -1.0384559365671209e-07  -5.1871517755175061e-08  -4.1145470416683419e-09  8.7384837088574129e-10  -2.2674326949146374e-09  9.1565982238104186e-09  -2.4598527089481297e-08  4.4992616647752467e-08  -3.5793072855223311e-08  -1.0366955350380703e-07  5.4881071331637617e-07  -1.3950642042614403e-06  2.3204594791943468e-06  1.0763200551952598e-07  -1.3769149480524545e-05  9.4956457099220295e-05  -4.4339031702248221e-04  2.8750218684799557e-03  -2.4810232153083527e-02  3.5431313125815966e-01  0.0000000000000000e+00  5.7866053371465466e-04  8.7498841683743994e-04  7.7102505601937680e-04  4.2001424653415899e-04  1.2009962328927115e-04  -3.3156444190556678e-06  -1.6008225546818062e-05  -4.5455615496845910e-06  4.9521674835070332e-07  6.0166708591977712e-07  1.1759749470094006e-07  -1.5087264652191351e-08  -1.2413713753701837e-08  -4.5114142311712214e-09  -7.1542530685780718e-10  2.3495914808655319e-09  -1.9889974587568531e-08  8.9954819320630921e-08  -3.2208674239494116e-07  9.6728783865681303e-07  -2.5216651454990837e-06  5.9001721728966819e-06  -1.2905885061438288e-05  2.7533047005879517e-05  -6.2931096204421543e-05  1.6247014581129328e-04  -5.6249834151121181e-04  2.6510476294370278e-03  -1.9616781809681544e-02  2.5016871888265413e-01  0.0000000000000000e+00  3.8369535058103152e-04  5.7832892647138921e-04  5.2470213222195956e-04  3.1351303556663722e-04  1.1413490391385497e-04  1.3796104286266259e-05  -9.4400008639742731e-06  -5.7256405386379972e-06  -1.1047073750302443e-06  2.2425546002960019e-07  2.0522698266973638e-07  6.5653783958718338e-08  1.3271582676992065e-08  1.7494339552623149e-09  2.2283472086783666e-09  -2.6390318748571007e-09  9.7967451652571882e-09  -3.4977136650729389e-08  1.1961474392802774e-07  -3.1972479746834182e-07  6.5443610768606401e-07  -9.0155442577595823e-07  4.8078751837080449e-08  5.3055316370129517e-06  -2.6069536467275934e-05  1.0402828870604957e-04  -4.2039492375861863e-04  2.0847110406605703e-03  -1.4282554771864586e-02  1.7086860110829463e-01  0.0000000000000000e+00  2.4416683241578727e-04  3.6850599214157087e-04  3.4529085485089477e-04  2.2565139355079964e-04  1.0036953018116644e-04  2.4955582811588829e-05  -1.7782502496359208e-06  -4.7107775142341998e-06  -2.1905688859829537e-06  -5.0321635195303819e-07  6.0424187778037969e-09  6.1204695048629448e-08  3.3949006604283268e-08  1.5385882360320624e-08  6.9668261689115603e-09  2.0982793307525028e-09  -4.5041116037747942e-09  4.6686870368178618e-08  -1.8463369187660660e-07  5.4866825699500058e-07  -1.3697900223278505e-06  3.0677084512096383e-06  -6.5985314979765229e-06  1.4576032623202944e-05  -3.5477460753996987e-05  1.0026514139113035e-04  -3.4717919968821397e-04  1.5460242791105333e-03  -9.9002049326624188e-03  1.1210688918715213e-01  0.0000000000000000e+00  1.4761310978012989e-04  2.2386944347733211e-04  2.1687479262040324e-04  1.5404237657227300e-04  8.0922483611142190e-05  2.9401869715062696e-05  5.0347611628316601e-06  -1.9553634718994881e-06  -2.1343570581233959e-06  -1.0690935251578554e-06  -3.7922555415055254e-07  -1.0177185794713636e-07  -2.1004184801007231e-08  -1.6036427777656220e-09  -1.0879923805635420e-09  -2.0267703281566876e-09  1.3558319456621662e-08  -6.4651854291245571e-08  1.7965510671947398e-07  -4.1951926424541431e-07  7.7116686808152111e-07  -1.1142475604438887e-06  8.8055321222924988e-07  1.6768774258493053e-06  -1.2331167790502103e-05  5.2282164460658496e-05  -2.1328061089649571e-04  1.0015965631069617e-03  -6.3107405274571912e-03  6.9987779013957502e-02  0.0000000000000000e+00  8.3564315245470802e-05  1.2766773511912736e-04  1.2778661514113956e-04  9.7796694078377058e-05  5.8924050262354216e-05  2.7513204053371872e-05  9.0999501180822857e-06  1.2006777846741362e-06  -9.8475985712815020e-07  -1.0207930725478773e-06  -6.2489341293298304e-07  -3.1432258899090768e-07  -1.5010108045813283e-07  -7.1733326774720384e-08  -3.9225648564716929e-08  -1.8504841871171277e-08  -3.3240595462533213e-08  4.4853732133013269e-08  -1.5076245711409534e-07  2.9620793634463146e-07  -5.7378270929737514e-07  9.9514821979804216e-07  -1.8136568807866134e-06  3.8472576269240789e-06  -1.0265984969213100e-05  3.3386987403201867e-05  -1.2793870372052363e-04  5.9317383388730492e-04  -3.7117497784624064e-03  4.1025551126101491e-02  0.0000000000000000e+00  4.3358992596400182e-05  6.6811202180137643e-05  6.8941902295673930e-05  5.6267004794951554e-05  3.7873098396741812e-05  2.1150188074818156e-05  9.5773714913136936e-06  3.2031461328968990e-06  4.2796159115905656e-07  -4.3184677086634956e-07  -5.2104291697640940e-07  -3.8770079171468614e-07  -2.5386949629020705e-07  -1.5435102584637826e-07  -9.6853871780590131e-08  -6.4483998172261861e-08  -2.4741585811278417e-08  -7.6228409075747603e-08  9.9728282546124740e-08  -2.5584882056001547e-07  4.2134636674020610e-07  -6.7348028232192073e-07  8.6717148260715293e-07  -6.8778239329930384e-07  -1.3153779778032585e-06  1.1141881307252534e-05  -5.6797852374047950e-05  2.9558882690633404e-04  -1.9373051948266338e-03  2.2144570703634955e-02  0.0000000000000000e+00  1.9946327376113477e-05  3.0978550266684581e-05  3.2829746913276610e-05  2.8247649974313350e-05  2.0728978138209137e-05  1.3172535082162118e-05  7.2231201930461720e-06  3.3228189035281655e-06  1.1512540962420352e-06  1.4446586830830132e-07  -2.2632165775586947e-07  -2.9077322826585348e-07  -2.5739488512752863e-07  -1.8959216819430022e-07  -1.3950443836139386e-07  -8.8203902767751301e-08  -8.2733053800126086e-08  2.5516858456659415e-09  -1.2795643091295888e-07  1.5774800140722273e-07  -2.8313381597583150e-07  3.4655943138935182e-07  -3.9641137628104977e-07  4.0309720467560907e-07  -7.6038023973284290e-07  3.5915510145705335e-06  -2.0391117642655574e-05  1.2071024380407274e-04  -8.6487857219008603e-04  1.0679287569268401e-02  0.0000000000000000e+00  7.7002803648441752e-06  1.2003560093848337e-05  1.2983590180252118e-05  1.1626568450798436e-05  9.0854321712913465e-06  6.3114051184191191e-06  3.9030598105548511e-06  2.1155444400285791e-06  9.4978064897373912e-07  2.8610355682271414e-07  -4.5044325242949170e-08  -