<?xml version="1.0"?>
<VTKFile type="UnstructuredGrid"  version="0.1"  >
<UnstructuredGrid>
<Piece  NumberOfPoints="961" NumberOfCells="1800">
<Points>
<DataArray  type="Float64"  NumberOfComponents="3"  format="ascii">-1 -1 0  -0.9333333333333333 -1 0  -0.8666666666666667 -1 0  -0.8 -1 0  -0.7333333333333334 -1 0  -0.6666666666666667 -1 0  -0.6 -1 0  -0.5333333333333333 -1 0  -0.4666666666666667 -1 0  -0.4 -1 0  -0.3333333333333334 -1 0  -0.2666666666666667 -1 0  -0.2 -1 0  -0.1333333333333333 -1 0  -0.06666666666666665 -1 0  0 -1 0  0.06666666666666665 -1 0  0.1333333333333333 -1 0  0.2 -1 0  0.2666666666666666 -1 0  0.3333333333333333 -1 0  0.3999999999999999 -1 0  0.4666666666666666 -1 0  0.5333333333333334 -1 0  0.6000000000000001 -1 0  0.6666666666666667 -1 0  0.7333333333333334 -1 0  0.8 -1 0  0.8666666666666667 -1 0  0.9333333333333333 -1 0  1 -1 0  -1 -0.9333333333333333 0  -0.9333333333333333 -0.9333333333333333 0  -0.8666666666666667 -0.9333333333333333 0  -0.8 -0.9333333333333333 0  -0.7333333333333334 -0.9333333333333333 0  -0.6666666666666667 -0.9333333333333333 0  -0.6 -0.9333333333333333 0  -0.5333333333333333 -0.9333333333333333 0  -0.4666666666666667 -0.9333333333333333 0  -0.4 -0.9333333333333333 0  -0.3333333333333334 -0.9333333333333333 0  -0.2666666666666667 -0.9333333333333333 0  -0.2 -0.9333333333333333 0  -0.1333333333333333 -0.9333333333333333 0  -0.06666666666666665 -0.9333333333333333 0  0 -0.9333333333333333 0  0.06666666666666665 -0.9333333333333333 0  0.1333333333333333 -0.9333333333333333 0  0.2 -0.9333333333333333 0  0.2666666666666666 -0.9333333333333333 0  0.3333333333333333 -0.9333333333333333 0  0.3999999999999999 -0.9333333333333333 0  0.4666666666666666 -0.9333333333333333 0  0.5333333333333334 -0.9333333333333333 0  0.6000000000000001 -0.9333333333333333 0  0.6666666666666667 -0.9333333333333333 0  0.7333333333333334 -0.9333333333333333 0  0.8 -0.9333333333333333 0  0.8666666666666667 -0.9333333333333333 0  0.9333333333333333 -0.9333333333333333 0  1 -0.9333333333333333 0  -1 -0.8666666666666667 0  -0.9333333333333333 -0.8666666666666667 0  -0.8666666666666667 -0.8666666666666667 0  -0.8 -0.8666666666666667 0  -0.7333333333333334 -0.8666666666666667 0  -0.6666666666666667 -0.8666666666666667 0  -0.6 -0.8666666666666667 0  -0.5333333333333333 -0.8666666666666667 0  -0.4666666666666667 -0.8666666666666667 0  -0.4 -0.8666666666666667 0  -0.3333333333333334 -0.8666666666666667 0  -0.2666666666666667 -0.8666666666666667 0  -0.2 -0.8666666666666667 0  -0.1333333333333333 -0.8666666666666667 0  -0.06666666666666665 -0.8666666666666667 0  0 -0.8666666666666667 0  0.06666666666666665 -0.8666666666666667 0  0.1333333333333333 -0.8666666666666667 0  0.2 -0.8666666666666667 0  0.2666666666666666 -0.8666666666666667 0  0.3333333333333333 -0.8666666666666667 0  0.3999999999999999 -0.8666666666666667 0  0.4666666666666666 -0.8666666666666667 0  0.5333333333333334 -0.8666666666666667 0  0.6000000000000001 -0.8666666666666667 0  0.6666666666666667 -0.8666666666666667 0  0.7333333333333334 -0.8666666666666667 0  0.8 -0.8666666666666667 0  0.8666666666666667 -0.8666666666666667 0  0.9333333333333333 -0.8666666666666667 0  1 -0.8666666666666667 0  -1 -0.8 0  -0.9333333333333333 -0.8 0  -0.8666666666666667 -0.8 0  -0.8 -0.8 0  -0.7333333333333334 -0.8 0  -0.6666666666666667 -0.8 0  -0.6 -0.8 0  -0.5333333333333333 -0.8 0  -0.4666666666666667 -0.8 0  -0.4 -0.8 0  -0.3333333333333334 -0.8 0  -0.2666666666666667 -0.8 0  -0.2 -0.8 0  -0.1333333333333333 -0.8 0  -0.06666666666666665 -0.8 0  0 -0.8 0  0.06666666666666665 -0.8 0  0.1333333333333333 -0.8 0  0.2 -0.8 0  0.2666666666666666 -0.8 0  0.3333333333333333 -0.8 0  0.3999999999999999 -0.8 0  0.4666666666666666 -0.8 0  0.5333333333333334 -0.8 0  0.6000000000000001 -0.8 0  0.6666666666666667 -0.8 0  0.7333333333333334 -0.8 0  0.8 -0.8 0  0.8666666666666667 -0.8 0  0.9333333333333333 -0.8 0  1 -0.8 0  -1 -0.7333333333333334 0  -0.9333333333333333 -0.7333333333333334 0  -0.8666666666666667 -0.7333333333333334 0  -0.8 -0.7333333333333334 0  -0.7333333333333334 -0.7333333333333334 0  -0.6666666666666667 -0.7333333333333334 0  -0.6 -0.7333333333333334 0  -0.5333333333333333 -0.7333333333333334 0  -0.4666666666666667 -0.7333333333333334 0  -0.4 -0.7333333333333334 0  -0.3333333333333334 -0.7333333333333334 0  -0.2666666666666667 -0.7333333333333334 0  -0.2 -0.7333333333333334 0  -0.1333333333333333 -0.7333333333333334 0  -0.06666666666666665 -0.7333333333333334 0  0 -0.7333333333333334 0  0.06666666666666665 -0.7333333333333334 0  0.1333333333333333 -0.7333333333333334 0  0.2 -0.7333333333333334 0  0.2666666666666666 -0.7333333333333334 0  0.3333333333333333 -0.7333333333333334 0  0.3999999999999999 -0.7333333333333334 0  0.4666666666666666 -0.7333333333333334 0  0.5333333333333334 -0.7333333333333334 0  0.6000000000000001 -0.7333333333333334 0  0.6666666666666667 -0.7333333333333334 0  0.7333333333333334 -0.7333333333333334 0  0.8 -0.7333333333333334 0  0.8666666666666667 -0.7333333333333334 0  0.9333333333333333 -0.7333333333333334 0  1 -0.7333333333333334 0  -1 -0.6666666666666667 0  -0.9333333333333333 -0.6666666666666667 0  -0.8666666666666667 -0.6666666666666667 0  -0.8 -0.6666666666666667 0  -0.7333333333333334 -0.6666666666666667 0  -0.6666666666666667 -0.6666666666666667 0  -0.6 -0.6666666666666667 0  -0.5333333333333333 -0.6666666666666667 0  -0.4666666666666667 -0.6666666666666667 0  -0.4 -0.6666666666666667 0  -0.3333333333333334 -0.6666666666666667 0  -0.2666666666666667 -0.6666666666666667 0  -0.2 -0.6666666666666667 0  -0.1333333333333333 -0.6666666666666667 0  -0.06666666666666665 -0.6666666666666667 0  0 -0.6666666666666667 0  0.06666666666666665 -0.6666666666666667 0  0.1333333333333333 -0.6666666666666667 0  0.2 -0.6666666666666667 0  0.2666666666666666 -0.6666666666666667 0  0.3333333333333333 -0.6666666666666667 0  0.3999999999999999 -0.6666666666666667 0  0.4666666666666666 -0.6666666666666667 0  0.5333333333333334 -0.6666666666666667 0  0.6000000000000001 -0.6666666666666667 0  0.6666666666666667 -0.6666666666666667 0  0.7333333333333334 -0.6666666666666667 0  0.8 -0.6666666666666667 0  0.8666666666666667 -0.6666666666666667 0  0.9333333333333333 -0.6666666666666667 0  1 -0.6666666666666667 0  -1 -0.6 0  -0.9333333333333333 -0.6 0  -0.8666666666666667 -0.6 0  -0.8 -0.6 0  -0.7333333333333334 -0.6 0  -0.6666666666666667 -0.6 0  -0.6 -0.6 0  -0.5333333333333333 -0.6 0  -0.4666666666666667 -0.6 0  -0.4 -0.6 0  -0.3333333333333334 -0.6 0  -0.2666666666666667 -0.6 0  -0.2 -0.6 0  -0.1333333333333333 -0.6 0  -0.06666666666666665 -0.6 0  0 -0.6 0  0.06666666666666665 -0.6 0  0.1333333333333333 -0.6 0  0.2 -0.6 0  0.2666666666666666 -0.6 0  0.3333333333333333 -0.6 0  0.3999999999999999 -0.6 0  0.4666666666666666 -0.6 0  0.5333333333333334 -0.6 0  0.6000000000000001 -0.6 0  0.6666666666666667 -0.6 0  0.7333333333333334 -0.6 0  0.8 -0.6 0  0.8666666666666667 -0.6 0  0.9333333333333333 -0.6 0  1 -0.6 0  -1 -0.5333333333333333 0  -0.9333333333333333 -0.5333333333333333 0  -0.8666666666666667 -0.5333333333333333 0  -0.8 -0.5333333333333333 0  -0.7333333333333334 -0.5333333333333333 0  -0.6666666666666667 -0.5333333333333333 0  -0.6 -0.5333333333333333 0  -0.5333333333333333 -0.5333333333333333 0  -0.4666666666666667 -0.5333333333333333 0  -0.4 -0.5333333333333333 0  -0.3333333333333334 -0.5333333333333333 0  -0.2666666666666667 -0.5333333333333333 0  -0.2 -0.5333333333333333 0  -0.1333333333333333 -0.5333333333333333 0  -0.06666666666666665 -0.5333333333333333 0  0 -0.5333333333333333 0  0.06666666666666665 -0.5333333333333333 0  0.1333333333333333 -0.5333333333333333 0  0.2 -0.5333333333333333 0  0.2666666666666666 -0.5333333333333333 0  0.3333333333333333 -0.5333333333333333 0  0.3999999999999999 -0.5333333333333333 0  0.4666666666666666 -0.5333333333333333 0  0.5333333333333334 -0.5333333333333333 0  0.6000000000000001 -0.5333333333333333 0  0.6666666666666667 -0.5333333333333333 0  0.7333333333333334 -0.5333333333333333 0  0.8 -0.5333333333333333 0  0.8666666666666667 -0.5333333333333333 0  0.9333333333333333 -0.5333333333333333 0  1 -0.5333333333333333 0  -1 -0.4666666666666667 0  -0.9333333333333333 -0.4666666666666667 0  -0.8666666666666667 -0.4666666666666667 0  -0.8 -0.4666666666666667 0  -0.7333333333333334 -0.4666666666666667 0  -0.6666666666666667 -0.4666666666666667 0  -0.6 -0.4666666666666667 0  -0.5333333333333333 -0.4666666666666667 0  -0.4666666666666667 -0.4666666666666667 0  -0.4 -0.4666666666666667 0  -0.3333333333333334 -0.4666666666666667 0  -0.2666666666666667 -0.4666666666666667 0  -0.2 -0.4666666666666667 0  -0.1333333333333333 -0.4666666666666667 0  -0.06666666666666665 -0.4666666666666667 0  0 -0.4666666666666667 0  0.06666666666666665 -0.4666666666666667 0  0.1333333333333333 -0.4666666666666667 0  0.2 -0.4666666666666667 0  0.2666666666666666 -0.4666666666666667 0  0.3333333333333333 -0.4666666666666667 0  0.3999999999999999 -0.4666666666666667 0  0.4666666666666666 -0.4666666666666667 0  0.5333333333333334 -0.4666666666666667 0  0.6000000000000001 -0.4666666666666667 0  0.6666666666666667 -0.4666666666666667 0  0.7333333333333334 -0.4666666666666667 0  0.8 -0.4666666666666667 0  0.8666666666666667 -0.4666666666666667 0  0.9333333333333333 -0.4666666666666667 0  1 -0.4666666666666667 0  -1 -0.4 0  -0.9333333333333333 -0.4 0  -0.8666666666666667 -0.4 0  -0.8 -0.4 0  -0.7333333333333334 -0.4 0  -0.6666666666666667 -0.4 0  -0.6 -0.4 0  -0.5333333333333333 -0.4 0  -0.4666666666666667 -0.4 0  -0.4 -0.4 0  -0.3333333333333334 -0.4 0  -0.2666666666666667 -0.4 0  -0.2 -0.4 0  -0.1333333333333333 -0.4 0  -0.06666666666666665 -0.4 0  0 -0.4 0  0.06666666666666665 -0.4 0  0.1333333333333333 -0.4 0  0.2 -0.4 0  0.2666666666666666 -0.4 0  0.3333333333333333 -0.4 0  0.3999999999999999 -0.4 0  0.4666666666666666 -0.4 0  0.5333333333333334 -0.4 0  0.6000000000000001 -0.4 0  0.6666666666666667 -0.4 0  0.7333333333333334 -0.4 0 
[...]
<PointData  Scalars="f_24"> 
<DataArray  type="Float64"  Name="f_24"  format="ascii">0.0000000000000000e+00  0.0000000000000000e+00  0.0000000000000000e+00  0.0000000000000000e+00  0.0000000000000000e+00  0.0000000000000000e+00  0.0000000000000000e+00  0.0000000000000000e+00  0.0000000000000000e+00  0.0000000000000000e+00  0.0000000000000000e+00  0.0000000000000000e+00  0.0000000000000000e+00  0.0000000000000000e+00  0.0000000000000000e+00  0.0000000000000000e+00  0.0000000000000000e+00  0.0000000000000000e+00  0.0000000000000000e+00  0.0000000000000000e+00  0.0000000000000000e+00  0.0000000000000000e+00  0.0000000000000000e+00  0.0000000000000000e+00  0.0000000000000000e+00  0.0000000000000000e+00  0.0000000000000000e+00  0.0000000000000000e+00  0.0000000000000000e+00  0.0000000000000000e+00  9.9501609034403291e+00  0.0000000000000000e+00  4.8546394357057002e-02  9.4402756410274902e-02  1.3763110393007555e-01  1.7864673407038831e-01  2.1787697259149305e-01  2.5576295458972093e-01  2.9277405760356695e-01  3.2942025852390910e-01  3.6626554701591812e-01  4.0394209173614420e-01  4.4316738465184113e-01  4.8476723652151482e-01  5.2970784555677619e-01  5.7914087997021768e-01  6.3446671712088798e-01  6.9742297632772299e-01  7.7020877742010552e-01  8.5566027382665966e-01  9.5750100867987975e-01  1.0807032703509467e+00  1.2320170928487186e+00  1.4207580643311140e+00  1.6600061518678966e+00  1.9684831030753589e+00  2.3736096317994311e+00  2.9167478011556525e+00  3.6629450834602535e+00  4.7204283079366975e+00  6.2881636703632635e+00  8.6883453752421964e+00  0.0000000000000000e+00  9.3730984293729572e-02  1.7658474676218200e-01  2.4534601295041197e-01  2.9915890638809084e-01  3.3854219644135175e-01  3.6493339937456970e-01  3.8026271873924283e-01  3.8662079364316815e-01  3.8603013210624565e-01  3.8030921289381975e-01  3.7101217355498156e-01  3.5942239771280443e-01  3.4658128534461408e-01  3.3333894774282646e-01  3.2041984574914295e-01  3.0850321271417958e-01  2.9832556366496732e-01  2.9082215350305946e-01  2.8733867578325578e-01  2.8996851431081994e-01  3.0211293374175757e-01  3.2943712418543120e-01  3.8153443537838722e-01  4.7487748963692616e-01  6.3817724456180791e-01  9.2250150961482535e-01  1.4214363522732918e+00  2.3166651760270383e+00  3.9931515777554325e+00  7.5505260497098998e+00  0.0000000000000000e+00  1.3360941348624794e-01  2.4028880361626925e-01  3.1094645459476117e-01  3.4540954110610483e-01  3.4913120956078680e-01  3.3015253623725282e-01  2.9673883584776678e-01  2.5599042481918027e-01  2.1328048395167751e-01  1.7224561922406090e-01  1.3506230780164336e-01  1.0281478067685774e-01  7.5843999491300981e-02  5.4029623955634674e-02  3.6995741071732605e-02  2.4250693320022540e-02  1.5279279448584376e-02  9.6092082678748275e-03  6.8791293415411603e-03  6.9502343390490471e-03  1.0139973347978537e-02  1.7740428863668688e-02  3.3167715928071939e-02  6.4485585324916397e-02  1.2990193840548192e-01  2.6972532763431339e-01  5.7324389696481948e-01  1.2412255479103462e+00  2.7657815384112672e+00  6.5283005687472002e+00  0.0000000000000000e+00  1.6714126942506621e-01  2.8415757724799917e-01  3.3694499159620311e-01  3.3306679240346843e-01  2.9120143028455869e-01  2.3143483125301792e-01  1.6955123849233192e-01  1.1527068394546461e-01  7.2943772615597660e-02  4.3209313384212626e-02  2.4645165605142596e-02  1.4997958225771392e-02  1.1934335572736531e-02  1.3413262281833777e-02  1.7812423379478689e-02  2.3918109585279453e-02  3.0851153924410606e-02  3.7970230134974151e-02  4.4773399403885132e-02  5.0810276479116637e-02  5.5624660860213643e-02  5.8789587562609234e-02  6.0234669146780058e-02  6.1455638602568897e-02  6.9232839747189606e-02  1.0614830678834178e-01  2.3852101416140647e-01  6.5339799627894068e-01  1.8723614384914820e+00  5.6135613938401834e+00  0.0000000000000000e+00  1.9398362135411687e-01  3.1015852741462457e-01  3.3357773832438203e-01  2.8839185372157516e-01  2.1207829073352163e-01  1.3552614722657885e-01  7.5620350864945104e-02  3.6868927677458592e-02  1.6444659114545880e-02  8.8315388240397460e-03  8.6832346367155672e-03  1.2017249060135807e-02  1.6374404925563125e-02  2.0520143853761729e-02  2.4042553686934972e-02  2.7005754140866565e-02  2.9699655476468363e-02  3.2472871485394107e-02  3.5618690230882800e-02  3.9284210733291872e-02  4.3378409545178305e-02  4.7464118741222298e-02  5.0653076577519052e-02  5.1720376505856758e-02  5.0471198303936794e-02  5.4167443880605515e-02  1.0169274301762446e-01  3.4047608003740337e-01  1.2874304372176169e+00  4.7984958060572582e+00  0.0000000000000000e+00  2.1433481231264320e-01  3.2194614534316468e-01  3.1258430469381221e-01  2.3362451554011729e-01  1.4093103486858105e-01  6.8881792128363331e-02  2.6821246543729492e-02  9.0047296792100193e-03  5.3412236488802507e-03  7.5309586767123788e-03  1.0786336158879389e-02  1.3219457220049790e-02  1.4626585271019822e-02  1.5504289455953635e-02  1.6485896625599163e-02  1.8106789883874458e-02  2.0753967924673745e-02  2.4686850887464154e-02  3.0059621586775689e-02  3.6906424857144793e-02  4.5070524289338297e-02  5.4069611961863918e-02  6.2887526699288626e-02  6.9657569322597909e-02  7.1470711766786835e-02  6.6576406185031897e-02  6.9758447450952207e-02  1.8437700450147737e-01  8.6961770963325324e-01  4.0755859060491595e+00  0.0000000000000000e+00  2.2875838897612169e-01  3.2356001025012182e-01  2.8370175368185824e-01  1.8223011752695970e-01  8.8193519090161904e-02  3.1024468838759804e-02  7.7192343015277881e-03  3.4677820671632346e-03  5.7055192890710944e-03  8.1131993634569067e-03  9.0598217619860966e-03  8.9874424533868333e-03  8.7087863988147916e-03  8.7661976709615570e-03  9.3919263984977661e-03  1.0666177310002814e-02  1.2672968812369198e-02  1.5593494511967355e-02  1.9731282320381058e-02  2.5466520825884950e-02  3.3124594857461997e-02  4.2746733057322177e-02  5.3773272052144931e-02  6.4662159971468236e-02  7.2270656358106269e-02  7.1377703490681940e-02  6.1692567806547485e-02  1.0199378941856441e-01  5.8222396767563478e-01  3.4376086140489437e+00  0.0000000000000000e+00  2.3801424597414264e-01  3.1863494709601642e-01  2.5358655418117526e-01  1.4005429273758727e-01  5.3407800950178157e-02  1.2514151527989591e-02  2.3300423676218679e-03  3.5993066960732516e-03  5.7686483639795812e-03  6.1960357211054062e-03  5.5547993745839221e-03  4.8201799571634717e-03  4.4077556490537909e-03  4.3408103220486816e-03  4.5659605518013398e-03  5.1251767930976201e-03  6.2036105302396968e-03  8.1336216074141786e-03  1.1397378111246208e-02  1.6615650380253408e-02  2.4462694225737266e-02  3.5417960758177221e-02  4.9315273139520270e-02  6.4762140082944522e-02  7.8587988757190849e-02  8.4691732038865125e-02  7.4632687491457975e-02  7.3126899886801489e-02  3.8588543778805140e-01  2.8776356698719980e+00  0.0000000000000000e+00  2.4292357220971592e-01  3.1005777036782672e-01  2.2610746297721990e-01  1.0821978325642073e-01  3.2182329247053262e-02  4.5423242363465790e-03  1.5422965731084291e-03  3.8014297184747049e-03  4.5240328597445541e-03  3.8073354106442827e-03  2.9046310897458440e-03  2.3077921423419363e-03  1.9664806168390066e-03  1.7700463182034080e-03  1.7146942755157247e-03  1.8798857410348019e-03  2.3980656913329627e-03  3.4856310378855214e-03  5.5278251677424702e-03  9.1773759957810824e-03  1.5385610871151511e-02  2.5224752736953068e-02  3.9316288066262098e-02  5.6906843280566534e-02  7.4912116238504564e-02  8.7251069912771692e-02  8.2530777648428810e-02  6.1748428134056677e-02  2.4871449707526738e-01  2.3890336329160227e+00  0.0000000000000000e+00  2.4427545887401547e-01  2.9991642270328950e-01  2.0311847106733272e-01  8.5627466684433856e-02  1.9936202365079765e-02  1.4865235971083441e-03  1.6661681543359143e-03  3.3292352217121684e-03  3.0364308623567031e-03  2.0937593783308555e-03  1.4122034791019225e-03  1.0110083284856509e-03  7.3547848934145746e-04  5.4767695900016951e-04  4.6806837577118140e-04  5.1265891836667907e-04  7.1598700686274655e-04  1.2037584370753307e-03  2.2958067589494949e-03  4.6439250649346012e-03  9.3659717674294939e-03  1.8006822891546578e-02  3.2035048288681311e-02  5.1548035262340128e-02  7.3766885695467049e-02  9.2007909079632549e-02  9.4527999683888322e-02  6.7042882971011616e-02  1.6240644324997477e-01  1.9654638821610537e+00  0.0000000000000000e+00  2.4277427014318276e-01  2.8959652355333293e-01  1.8522359742349445e-01  7.0513097855914031e-02  1.3213903778225228e-02  4.2706103343254412e-04  1.6744940923090290e-03  2.5831611994819124e-03  1.8927832665613200e-03  1.1079525086749962e-03  6.6695286424697656e-04  4.0205311780194006e-04  2.1779820485397412e-04  1.1491396846575251e-04  7.9598220047552912e-05  8.4444904321698519e-05  1.3202361335396735e-04  2.9125210499825102e-04  7.6595507156017892e-04  2.0565328522853823e-03  5.2146754445746880e-03  1.2030103448845803e-02  2.4695664374500569e-02  4.4488107724975065e-02  6.9222779615052965e-02  9.2049485834738931e-02  1.0029641235313416e-01  7.4233005082109393e-02  1.0280416695141009e-01  1.6008826161694407e+00  0.0000000000000000e+00  2.3901373889972541e-01  2.7992894693166137e-01  1.7235123420073567e-01  6.1216679200153057e-02  9.8004113420511012e-03  6.9349503057573560e-05  1.4717872332595918e-03  1.8945293947722681e-03  1.1662145285642703e-03  5.9483428912718544e-04  3.1608903659423332e-04  1.4721091031234229e-04  4.7068963969997383e-05  9.7008452897590497e-06  1.5924825848594012e-06  -1.6568955834171618e-06  3.0445376729959863e-07  3.1976914514876357e-05  1.9294901608267988e-04  8.2777362342101497e-04  2.8607574120186239e-03  8.1709215931645117e-03  1.9550968181932686e-02  3.9316183084304970e-02  6.6472574230680703e-02  9.3391784182960305e-02  1.0751902253257153e-01  8.4986120096981518e-02  7.0779944474552547e-02  1.2895408530858665e+00  0.0000000000000000e+00  2.3347543913579893e-01  2.7133353866240884e-01  1.6412378540087399e-01  5.6468462206122706e-02  8.4435987313877889e-03  -7.0148617779224200e-05  1.1583165159237262e-03  1.3756522456692610e-03  7.4703790415925092e-04  3.3793478771497107e-04  1.5749000792130669e-04  5.3816070036432980e-05  5.3835958019192526e-06  -3.6783103333930552e-06  -3.1872862938995101e-06  -4.5451570613071944e-06  -7.9735113412207016e-06  -1.3335784921559881e-05  1.3356142613585357e-05  2.8244762446935569e-04  1.5353881120818633e-03  5.6018182953400299e-03  1.5600468494218124e-02  3.4851012084657115e-02  6.3266575140564413e-02  9.3636420933741721e-02  1.1120357689917146e-01  9.4196071938539058e-02  5.0128384585296948e-02  1.0259844306373329e+00  0.0000000000000000e+00  2.2653210279458480e-01  2.6393729286987216e-01  1.6006133446018045e-01  5.5434612277639968e-02  8.5507600058602248e-03  -1.1209405529950915e-04  8.1170162922451566e-04  1.0157437270564504e-03  5.1830253713095224e-04  2.1085924505836339e-04  8.7787490670469687e-05  2.4018077628024596e-05  -7.3004528306111104e-07  -2.3912816367591573e-06  -7.4913992593103261e-07  -3.5377170738730584e-07  -1.2037373204453200e-06  -9.3458376922136262e-06  -2.3533505692105246e-05  7.1434793106170860e-05  8.6883798619073890e-04  4.1022770255779925e-03  1.3168455640157091e-02  3.2024362182212746e-02  6.1782765960926335e-02  9.4903555269735027e-02  1.1608459690387818e-01  1.0288690310552530e-01  4.3243986173502454e-02  8.0505400613316713e-01  0.0000000000000000e+00  2.1846483813784634e-01  2.5766282580312594e-01  1.5967675014572208e-01  5.7665105539399686e-02  9.9757277329467417e-03  -6.1804396684356422e-06  4.6278224410122785e-04  7.6164971440168168e-04  4.0019097542438252e-04  1.5029895073444889e-04  5.7358101360621585e-05  1.6140776534266093e-05  4.6603955465797988e-07  -1.0617060262739573e-06  -2.1037066230722321e-07  3.5209706861682860e-07  1.4809328449415830e-06  -2.5114216491155267e-06  -2.5917471489536408e-05  -8.2421516991917131e-06  5.4340750140606617e-04  3.3182731804056388e-03  1.1829211525656802e-02  3.0637614417901946e-02  6.1249090589232197e-02  9.6793337451783104e-02  1.1954317276395950e-01  1.0988161030500804e-01  4.0407709396239236e-02  6.2188505646502057e-01  0.0000000000000000e+00  2.0947295426473486e-01  2.5228573700283696e-01  1.6249555658097872e-01  6.3008671809270875e-02  1.2901962184948637e-02  4.2488497058741994e-04  1.2838866684759267e-04  5.5111557383648573e-04  3.4256602976786519e-04  1.2831081508579722e-04  4.4742418176879652e-05  1.4662948400412240e-05  2.9542772282774628e-06  1.5020985394070623e-07  -2.3360981643791593e-07  -6.9940605554859732e-08  2.2337438557961638e-06  9.3753728115997027e-07  -2.5690461189786000e-05  -4.0547790740531237e-05  4.3119598747881779e-04  3.0916872271276436e-03  1.1648951222010009e-02  3.0857213438193452e-02  6.2680094069063164e-02  9.9798873202177882e-02  1.2402955454366166e-01  1.1549752392221606e-01  4.3348149237168523e-02  4.7190787810686874e-01  0.0000000000000000e+00  1.9969130609929012e-01  2.4747730555491460e-01  1.6803686618100372e-01  7.1522164565815796e-02  1.7795115630947062e-02  1.5295717319206406e-03  -1.2936067176266502e-04  3.2413973046644935e-04  3.0330720838451060e-04  1.3336264907032490e-04  4.4837283318619668e-05  1.4909395763725354e-05  4.7516472904626517e-06  1.1257351232410769e-06  -1.9284541231412388e-07  1.8820926737705990e-07  3.8112270496530359e-06  1.1667672627593945e-06  -3.4556737823986687e-05  -5.3279253458777413e-05  4.8064279762352618e-04  3.4285277102118050e-03  1.2614283016841534e-02  3.2936300288604767e-02  6.5893989687965088e-02  1.0419306151269690e-01  1.2816747356061564e-01  1.1981173983879745e-01  4.6844855553897613e-02  3.5084758711501146e-01  0.0000000000000000e+00  1.8920357880832134e-01  2.4282035563463716e-01  1.7576292118801803e-01  8.3357755295526886e-02  2.5382599979276853e-02  3.9268409325637944e-03  -9.8627645496088143e-05  5.0806878817756747e-05  2.2634558186639979e-04  1.4888439363555406e-04  6.1357102656350884e-05  2.1156871768435701e-05  7.0584878597815941e-06  2.1642916932006702e-06  1.0977230702324501e-06  3.1175675196207274e-06  6.4158151111611107e-06  -6.9273958478119402e-06  -5.8513938680863270e-05  -3.6208186456628840e-05  7.7994659809570545e-04  4.4910946534565139e-03  1.5096710068218061e-02  3.7128843737088787e-02  7.1506466951200720e-02  1.0992372522653682e-01  1.3294084109244556e-01  1.2274707930421466e-01  5.1756336894798749e-02  2.5472411912807247e-01  0.0000000000000000e+00  1.7804480877142209e-01  2.3783300517999001e-01  1.8501531784019376e-01  9.8635664261298786e-02  3.6617561255353946e-02  8.6436643279699590e-03  7.7094817588465247e-04  -1.6099231277315128e-04  5.1041149484067297e-05  1.2253148352303351e-04  8.3186379212792243e-05  4.1104270332048045e-05  1.9062724839040858e-05  1.0283538995198386e-05  8.5184189303802580e-06  8.6888928431558544e-06  4.0173783366102480e-07  -3.8424501969973593e-05  -8.9375990833194630e-05  1.1439551788831140e-04  1.5898537331337974e-03  6.7739702096654923e-03  1.9621816270484798e-02  4.4042863179749356e-02  7.9570285437208899e-02  1.1719786931465206e-01  1.3751867454506639e-01  1.2452103971048921e-01  5.5613344356721051e-02  1.7985222936699988e-01  0.0000000000000000e+00  1.6623194560082491e-01  2.3196550421469050e-01  1.9494569572549450e-01  1.1725234521154751e-01  5.2554936544258732e-02  1.7220226815012445e-02  3.6567107359319223e-03  2.1276213805289203e-04  -1.4688867956660467e-04  -2.2059207161913736e-05  4.0755017252750530e-05  4.2563426604388600e-05  2.9833775450132818e-05  1.8976894546006482e-05  9.5204077999079240e-06  -7.4671368020738701e-06  -4.4147470591239807e-05  -9.2186566954274802e-05  -1.0397577099589025e-05  7.3948257739402416e-04  3.5713133629992860e-03  1.1157350966132974e-02  2.7162791575949582e-02  5.4238867065326914e-02  9.0419229192797976e-02  1.2564807585659246e-01  1.4196491647090145e-01  1.2485909637063579e-01  5.8730300170807222e-02  1.2284149263506586e-01  0.0000000000000000e+00  1.5372821134659162e-01  2.2462279840447955e-01  2.0443975523389382e-01  1.3866144901963665e-01  7.4081921821478991e-02  3.1681856168567946e-02  1.0693515630590572e-02  2.6427939321557068e-03  3.1514381355955625e-04  -1.1581859561829285e-04  -1.0908518500444369e-04  -6.2976409529004663e-05  -4.1614165547816969e-05  -4.1430192971406793e-05  -5.6624873674626140e-05  -8.2225133465015576e-05  -8.8592689016700921e-05  4.7889080592296015e-05  7.0662207411134332e-04  2.7924605633862804e-03  8.0568532486406264e-03  1.9155058525587468e-02  3.8921502889678140e-02  6.8405986390398160e-02  1.0387150237458531e-01  1.3492436900002461e-01  1.4549259038723605e-01  1.2374442401680479e-01  6.0133068264766214e-02  8.0596303317866713e-02  0.0000000000000000e+00  1.4052294987835451e-01  2.1516730733326361e-01  2.1208474429983087e-01  1.6158681653636012e-01  1.0141301043632601e-01  5.4135635756747673e-02  2.5063290788628987e-02  1.0194544871012175e-02  3.6684758391114418e-03  1.1597145463502704e-03  3.0235925700101274e-04  4.0304227756945294e-05  -2.7664273793602219e-05  -3.0082287891865011e-05  1.3359150305058358e-05  1.5081729977446104e-04  5.2950796101120868e-04  1.4880960135634056e-03  3.7133185703194485e-03  8.4139569865534398e-03  1.7411648995519651e-02  3.2837414694264259e-02  5.6235573905063042e-02  8.6778011276991113e-02  1.1942407453586251e-01  1.4403920896274511e-01  1.4750702402948315e-01  1.2079335576886870e-01  5.9925139754104781e-02  5.0315875383322980e-02  0.0000000000000000e+00  1.2651639226394351e-01  2.0293761947240949e-01  2.1612500038171217e-01  1.8376784830732354e-01  1.3337564492049594e-01  8.5810069617091353e-02  5.0361525388338900e-02  2.7710321740869633e-02  1.4741897790609620e-02  7.8776392292106319e-03  4.4375930502326211e-03  2.7928048792860405e-03  2.0837015950307754e-03  1.9199934682365377e-03  2.1903918196006203e-03  2.9835989625335364e-03  4.5906561771582779e-03  7.5595878449675963e-03  1.2763791147912639e-02  2.1417078332036758e-02  3.4921028091248696e-02  5.4394704578510103e-02  7.9801864197772826e-02  1.0876644495278172e-01  1.3564269902591322e-01  1.5164462408020349e-01  1.4698544686456677e-01  1.1574068183146449e-01  5.7846693184505943e-02  2.9494242381679272e-02  0.0000000000000000e+00  1.1170406105853725e-01  1.8730230814416346e-01  2.1457255341703019e-01  2.0180139521983015e-01  1.6658554681474483e-01  1.2539064399698238e-01  8.8570601663883142e-02  6.0264011763136373e-02  4.0557483836604881e-02  2.7761852475876071e-02  1.9892480812935598e-02  1.5334571399724044e-02  1.3001588917391522e-02  1.2278837669778704e-02  1.2922873709168744e-02  1.4985658705604791e-02  1.8772644244051628e-02  2.4815403883784965e-02  3.3821185998895283e-02  4.6544379786455106e-02  6.3528264501639120e-02  8.4653665150275295e-02  1.0857388133118104e-01  1.3209831886639034e-01  1.5005584397672264e-01  1.5575195008041970e-01  1.4287653409190065e-01  1.0817079622139214e-01  5.3986515072952261e-02  1.5920257445504512e-02  0.0000000000000000e+00  9.5913035363040397e-02  1.6762829035809043e-01  2.0524624567681823e-01  2.1119201863763765e-01  1.9486965463889336e-01  1.6712192871594261e-01  1.3666022958668189e-01  1.0885993236145405e-01  8.6139036379400555e-02  6.8958553180310231e-02  5.6792734727029441e-02  4.8805042634424728e-02  4.4218448525635994e-02  4.2470125984117549e-02  4.3244956451217446e-02  4.6452071126703465e-02  5.2173325827101269e-02  6.0588834754214435e-02  7.1867300886093069e-02  8.6008956863846561e-02  1.0262507194849602e-01  1.2067809006680762e-01  1.3822388329487906e-01  1.5227073369781510e-01  1.5894141549318466e-01  1.5398436672992705e-01  1.3401000584909761e-01  9.7748529775472826e-02  4.8384681919468583e-02  7.6775932896916048e-03  0.0000000000000000e+00  7.9181671875406798e-02  1.4348915835399023e-01  1.8620035812509958e-01  2.0692634144259966e-01  2.0953271168417742e-01  1.9970448174399910e-01  1.8305409407846393e-01  1.6406158595502954e-01  1.4575844744520497e-01  1.2987956840996048e-01  1.1721209950673485e-01  1.0795674960496274e-01  1.0201200374870537e-01  9.9159714347763744e-02  9.9163528960101568e-02  1.0180256284249108e-01  1.0685876849270326e-01  1.1407118745406007e-01  1.2306519739521690e-01  1.3326203795963898e-01  1.4378290429567