<?xml version="1.0"?>
<VTKFile type="UnstructuredGrid"  version="0.1"  >
<UnstructuredGrid>
<Piece  NumberOfPoints="961" NumberOfCells="1800">
<Points>
<DataArray  type="Float64"  NumberOfComponents="3"  format="ascii">-1 -1 0  -0.9333333333333333 -1 0  -0.8666666666666667 -1 0  -0.8 -1 0  -0.7333333333333334 -1 0  -0.6666666666666667 -1 0  -0.6 -1 0  -0.5333333333333333 -1 0  -0.4666666666666667 -1 0  -0.4 -1 0  -0.3333333333333334 -1 0  -0.2666666666666667 -1 0  -0.2 -1 0  -0.1333333333333333 -1 0  -0.06666666666666665 -1 0  0 -1 0  0.06666666666666665 -1 0  0.1333333333333333 -1 0  0.2 -1 0  0.2666666666666666 -1 0  0.3333333333333333 -1 0  0.3999999999999999 -1 0  0.4666666666666666 -1 0  0.5333333333333334 -1 0  0.6000000000000001 -1 0  0.6666666666666667 -1 0  0.7333333333333334 -1 0  0.8 -1 0  0.8666666666666667 -1 0  0.9333333333333333 -1 0  1 -1 0  -1 -0.9333333333333333 0  -0.9333333333333333 -0.9333333333333333 0  -0.8666666666666667 -0.9333333333333333 0  -0.8 -0.9333333333333333 0  -0.7333333333333334 -0.9333333333333333 0  -0.6666666666666667 -0.9333333333333333 0  -0.6 -0.9333333333333333 0  -0.5333333333333333 -0.9333333333333333 0  -0.4666666666666667 -0.9333333333333333 0  -0.4 -0.9333333333333333 0  -0.3333333333333334 -0.9333333333333333 0  -0.2666666666666667 -0.9333333333333333 0  -0.2 -0.9333333333333333 0  -0.1333333333333333 -0.9333333333333333 0  -0.06666666666666665 -0.9333333333333333 0  0 -0.9333333333333333 0  0.06666666666666665 -0.9333333333333333 0  0.1333333333333333 -0.9333333333333333 0  0.2 -0.9333333333333333 0  0.2666666666666666 -0.9333333333333333 0  0.3333333333333333 -0.9333333333333333 0  0.3999999999999999 -0.9333333333333333 0  0.4666666666666666 -0.9333333333333333 0  0.5333333333333334 -0.9333333333333333 0  0.6000000000000001 -0.9333333333333333 0  0.6666666666666667 -0.9333333333333333 0  0.7333333333333334 -0.9333333333333333 0  0.8 -0.9333333333333333 0  0.8666666666666667 -0.9333333333333333 0  0.9333333333333333 -0.9333333333333333 0  1 -0.9333333333333333 0  -1 -0.8666666666666667 0  -0.9333333333333333 -0.8666666666666667 0  -0.8666666666666667 -0.8666666666666667 0  -0.8 -0.8666666666666667 0  -0.7333333333333334 -0.8666666666666667 0  -0.6666666666666667 -0.8666666666666667 0  -0.6 -0.8666666666666667 0  -0.5333333333333333 -0.8666666666666667 0  -0.4666666666666667 -0.8666666666666667 0  -0.4 -0.8666666666666667 0  -0.3333333333333334 -0.8666666666666667 0  -0.2666666666666667 -0.8666666666666667 0  -0.2 -0.8666666666666667 0  -0.1333333333333333 -0.8666666666666667 0  -0.06666666666666665 -0.8666666666666667 0  0 -0.8666666666666667 0  0.06666666666666665 -0.8666666666666667 0  0.1333333333333333 -0.8666666666666667 0  0.2 -0.8666666666666667 0  0.2666666666666666 -0.8666666666666667 0  0.3333333333333333 -0.8666666666666667 0  0.3999999999999999 -0.8666666666666667 0  0.4666666666666666 -0.8666666666666667 0  0.5333333333333334 -0.8666666666666667 0  0.6000000000000001 -0.8666666666666667 0  0.6666666666666667 -0.8666666666666667 0  0.7333333333333334 -0.8666666666666667 0  0.8 -0.8666666666666667 0  0.8666666666666667 -0.8666666666666667 0  0.9333333333333333 -0.8666666666666667 0  1 -0.8666666666666667 0  -1 -0.8 0  -0.9333333333333333 -0.8 0  -0.8666666666666667 -0.8 0  -0.8 -0.8 0  -0.7333333333333334 -0.8 0  -0.6666666666666667 -0.8 0  -0.6 -0.8 0  -0.5333333333333333 -0.8 0  -0.4666666666666667 -0.8 0  -0.4 -0.8 0  -0.3333333333333334 -0.8 0  -0.2666666666666667 -0.8 0  -0.2 -0.8 0  -0.1333333333333333 -0.8 0  -0.06666666666666665 -0.8 0  0 -0.8 0  0.06666666666666665 -0.8 0  0.1333333333333333 -0.8 0  0.2 -0.8 0  0.2666666666666666 -0.8 0  0.3333333333333333 -0.8 0  0.3999999999999999 -0.8 0  0.4666666666666666 -0.8 0  0.5333333333333334 -0.8 0  0.6000000000000001 -0.8 0  0.6666666666666667 -0.8 0  0.7333333333333334 -0.8 0  0.8 -0.8 0  0.8666666666666667 -0.8 0  0.9333333333333333 -0.8 0  1 -0.8 0  -1 -0.7333333333333334 0  -0.9333333333333333 -0.7333333333333334 0  -0.8666666666666667 -0.7333333333333334 0  -0.8 -0.7333333333333334 0  -0.7333333333333334 -0.7333333333333334 0  -0.6666666666666667 -0.7333333333333334 0  -0.6 -0.7333333333333334 0  -0.5333333333333333 -0.7333333333333334 0  -0.4666666666666667 -0.7333333333333334 0  -0.4 -0.7333333333333334 0  -0.3333333333333334 -0.7333333333333334 0  -0.2666666666666667 -0.7333333333333334 0  -0.2 -0.7333333333333334 0  -0.1333333333333333 -0.7333333333333334 0  -0.06666666666666665 -0.7333333333333334 0  0 -0.7333333333333334 0  0.06666666666666665 -0.7333333333333334 0  0.1333333333333333 -0.7333333333333334 0  0.2 -0.7333333333333334 0  0.2666666666666666 -0.7333333333333334 0  0.3333333333333333 -0.7333333333333334 0  0.3999999999999999 -0.7333333333333334 0  0.4666666666666666 -0.7333333333333334 0  0.5333333333333334 -0.7333333333333334 0  0.6000000000000001 -0.7333333333333334 0  0.6666666666666667 -0.7333333333333334 0  0.7333333333333334 -0.7333333333333334 0  0.8 -0.7333333333333334 0  0.8666666666666667 -0.7333333333333334 0  0.9333333333333333 -0.7333333333333334 0  1 -0.7333333333333334 0  -1 -0.6666666666666667 0  -0.9333333333333333 -0.6666666666666667 0  -0.8666666666666667 -0.6666666666666667 0  -0.8 -0.6666666666666667 0  -0.7333333333333334 -0.6666666666666667 0  -0.6666666666666667 -0.6666666666666667 0  -0.6 -0.6666666666666667 0  -0.5333333333333333 -0.6666666666666667 0  -0.4666666666666667 -0.6666666666666667 0  -0.4 -0.6666666666666667 0  -0.3333333333333334 -0.6666666666666667 0  -0.2666666666666667 -0.6666666666666667 0  -0.2 -0.6666666666666667 0  -0.1333333333333333 -0.6666666666666667 0  -0.06666666666666665 -0.6666666666666667 0  0 -0.6666666666666667 0  0.06666666666666665 -0.6666666666666667 0  0.1333333333333333 -0.6666666666666667 0  0.2 -0.6666666666666667 0  0.2666666666666666 -0.6666666666666667 0  0.3333333333333333 -0.6666666666666667 0  0.3999999999999999 -0.6666666666666667 0  0.4666666666666666 -0.6666666666666667 0  0.5333333333333334 -0.6666666666666667 0  0.6000000000000001 -0.6666666666666667 0  0.6666666666666667 -0.6666666666666667 0  0.7333333333333334 -0.6666666666666667 0  0.8 -0.6666666666666667 0  0.8666666666666667 -0.6666666666666667 0  0.9333333333333333 -0.6666666666666667 0  1 -0.6666666666666667 0  -1 -0.6 0  -0.9333333333333333 -0.6 0  -0.8666666666666667 -0.6 0  -0.8 -0.6 0  -0.7333333333333334 -0.6 0  -0.6666666666666667 -0.6 0  -0.6 -0.6 0  -0.5333333333333333 -0.6 0  -0.4666666666666667 -0.6 0  -0.4 -0.6 0  -0.3333333333333334 -0.6 0  -0.2666666666666667 -0.6 0  -0.2 -0.6 0  -0.1333333333333333 -0.6 0  -0.06666666666666665 -0.6 0  0 -0.6 0  0.06666666666666665 -0.6 0  0.1333333333333333 -0.6 0  0.2 -0.6 0  0.2666666666666666 -0.6 0  0.3333333333333333 -0.6 0  0.3999999999999999 -0.6 0  0.4666666666666666 -0.6 0  0.5333333333333334 -0.6 0  0.6000000000000001 -0.6 0  0.6666666666666667 -0.6 0  0.7333333333333334 -0.6 0  0.8 -0.6 0  0.8666666666666667 -0.6 0  0.9333333333333333 -0.6 0  1 -0.6 0  -1 -0.5333333333333333 0  -0.9333333333333333 -0.5333333333333333 0  -0.8666666666666667 -0.5333333333333333 0  -0.8 -0.5333333333333333 0  -0.7333333333333334 -0.5333333333333333 0  -0.6666666666666667 -0.5333333333333333 0  -0.6 -0.5333333333333333 0  -0.5333333333333333 -0.5333333333333333 0  -0.4666666666666667 -0.5333333333333333 0  -0.4 -0.5333333333333333 0  -0.3333333333333334 -0.5333333333333333 0  -0.2666666666666667 -0.5333333333333333 0  -0.2 -0.5333333333333333 0  -0.1333333333333333 -0.5333333333333333 0  -0.06666666666666665 -0.5333333333333333 0  0 -0.5333333333333333 0  0.06666666666666665 -0.5333333333333333 0  0.1333333333333333 -0.5333333333333333 0  0.2 -0.5333333333333333 0  0.2666666666666666 -0.5333333333333333 0  0.3333333333333333 -0.5333333333333333 0  0.3999999999999999 -0.5333333333333333 0  0.4666666666666666 -0.5333333333333333 0  0.5333333333333334 -0.5333333333333333 0  0.6000000000000001 -0.5333333333333333 0  0.6666666666666667 -0.5333333333333333 0  0.7333333333333334 -0.5333333333333333 0  0.8 -0.5333333333333333 0  0.8666666666666667 -0.5333333333333333 0  0.9333333333333333 -0.5333333333333333 0  1 -0.5333333333333333 0  -1 -0.4666666666666667 0  -0.9333333333333333 -0.4666666666666667 0  -0.8666666666666667 -0.4666666666666667 0  -0.8 -0.4666666666666667 0  -0.7333333333333334 -0.4666666666666667 0  -0.6666666666666667 -0.4666666666666667 0  -0.6 -0.4666666666666667 0  -0.5333333333333333 -0.4666666666666667 0  -0.4666666666666667 -0.4666666666666667 0  -0.4 -0.4666666666666667 0  -0.3333333333333334 -0.4666666666666667 0  -0.2666666666666667 -0.4666666666666667 0  -0.2 -0.4666666666666667 0  -0.1333333333333333 -0.4666666666666667 0  -0.06666666666666665 -0.4666666666666667 0  0 -0.4666666666666667 0  0.06666666666666665 -0.4666666666666667 0  0.1333333333333333 -0.4666666666666667 0  0.2 -0.4666666666666667 0  0.2666666666666666 -0.4666666666666667 0  0.3333333333333333 -0.4666666666666667 0  0.3999999999999999 -0.4666666666666667 0  0.4666666666666666 -0.4666666666666667 0  0.5333333333333334 -0.4666666666666667 0  0.6000000000000001 -0.4666666666666667 0  0.6666666666666667 -0.4666666666666667 0  0.7333333333333334 -0.4666666666666667 0  0.8 -0.4666666666666667 0  0.8666666666666667 -0.4666666666666667 0  0.9333333333333333 -0.4666666666666667 0  1 -0.4666666666666667 0  -1 -0.4 0  -0.9333333333333333 -0.4 0  -0.8666666666666667 -0.4 0  -0.8 -0.4 0  -0.7333333333333334 -0.4 0  -0.6666666666666667 -0.4 0  -0.6 -0.4 0  -0.5333333333333333 -0.4 0  -0.4666666666666667 -0.4 0  -0.4 -0.4 0  -0.3333333333333334 -0.4 0  -0.2666666666666667 -0.4 0  -0.2 -0.4 0  -0.1333333333333333 -0.4 0  -0.06666666666666665 -0.4 0  0 -0.4 0  0.06666666666666665 -0.4 0  0.1333333333333333 -0.4 0  0.2 -0.4 0  0.2666666666666666 -0.4 0  0.3333333333333333 -0.4 0  0.3999999999999999 -0.4 0  0.4666666666666666 -0.4 0  0.5333333333333334 -0.4 0  0.6000000000000001 -0.4 0  0.6666666666666667 -0.4 0  0.7333333333333334 -0.4 0 
[...]
<PointData  Scalars="f_24"> 
<DataArray  type="Float64"  Name="f_24"  format="ascii">0.0000000000000000e+00  0.0000000000000000e+00  0.0000000000000000e+00  0.0000000000000000e+00  0.0000000000000000e+00  0.0000000000000000e+00  0.0000000000000000e+00  0.0000000000000000e+00  0.0000000000000000e+00  0.0000000000000000e+00  0.0000000000000000e+00  0.0000000000000000e+00  0.0000000000000000e+00  0.0000000000000000e+00  0.0000000000000000e+00  0.0000000000000000e+00  0.0000000000000000e+00  0.0000000000000000e+00  0.0000000000000000e+00  0.0000000000000000e+00  0.0000000000000000e+00  0.0000000000000000e+00  0.0000000000000000e+00  0.0000000000000000e+00  0.0000000000000000e+00  0.0000000000000000e+00  0.0000000000000000e+00  0.0000000000000000e+00  0.0000000000000000e+00  0.0000000000000000e+00  1.5761791033649002e+01  0.0000000000000000e+00  2.0543481805439219e-13  -3.2370999685274830e-12  -3.6180399618625926e-11  -1.9479157423863251e-10  -7.5257956789860643e-10  -2.3812887172721629e-09  -6.5922356565915825e-09  -1.6605203776099537e-08  -3.9050551237331938e-08  -8.7307962032215996e-08  -1.8809522740325292e-07  -3.9460009264088441e-07  -8.1300267966531449e-07  -1.6569270653767556e-06  -3.3614085834912296e-06  -6.8267423825616980e-06  -1.3953236962573322e-05  -2.8845951619907653e-05  -6.0608297349077218e-05  -1.3001777567602524e-04  -2.8596747868292011e-04  -6.4711733229720625e-04  -1.5096662932410718e-03  -3.6257919264623701e-03  -8.8617860059839425e-03  -2.0911043761320403e-02  -3.3162573011325601e-02  2.5584310752714950e-01  3.1601585060440853e+00  1.3762981881568271e+01  0.0000000000000000e+00  -2.9132715275888376e-14  -5.7376271134404858e-12  -4.5841645618983433e-11  -2.0893842828535824e-10  -7.0390509955525000e-10  -1.9524368648881200e-09  -4.7274990322862020e-09  -1.0359300758741780e-08  -2.1041085872032556e-08  -4.0282432818793413e-08  -7.3582364759936705e-08  -1.2944263919247523e-07  -2.2096172472688672e-07  -3.6861077023415067e-07  -6.0597859380097390e-07  -9.9430898440521626e-07  -1.6656079824167842e-06  -2.9629361380985782e-06  -5.9198507847852631e-06  -1.3946269911162092e-05  -3.8881532864252352e-05  -1.2312690918499781e-04  -4.2197472924867304e-04  -1.5146779379569273e-03  -5.5868605915582216e-03  -2.0706533799843285e-02  -6.9879168149756338e-02  -4.8721300119090446e-03  2.1177839248301535e+00  1.1960591888368594e+01  0.0000000000000000e+00  -2.0030356858925701e-13  -5.4883122903235210e-12  -3.5092486690851702e-11  -1.3484443930541233e-10  -3.8269790901277238e-10  -8.7988186223894081e-10  -1.7192259751371286e-09  -2.9180507058582950e-09  -4.2921161678709992e-09  -5.2243784829942180e-09  -4.2349363306221153e-09  1.8447823146915936e-09  1.9529330772223833e-08  6.2186066809873095e-08  1.5789590530057766e-07  3.6810677374547579e-07  8.3418781148646842e-07  1.8980943993293188e-06  4.4203556021113871e-06  1.0598771346319763e-05  2.5841081773616523e-05  6.1324409126263193e-05  1.2489372412805334e-04  1.0294465133386458e-04  -1.0721333831509188e-03  -1.0275813486539753e-02  -6.1701020749704683e-02  -1.0278410373742337e-01  1.4925483004021947e+00  1.0341311097177110e+01  0.0000000000000000e+00  -2.5203290204803240e-13  -4.0458013121317091e-12  -2.1150747803199491e-11  -6.7354736473999331e-11  -1.5458849775499448e-10  -2.7344075025055861e-10  -3.7371224009387486e-10  -3.4987066995491053e-10  -3.8398314794329555e-11  7.6396475915862572e-10  2.2452679757315612e-09  4.4544624664910399e-09  7.0406836273185290e-09  8.7139109601176332e-09  6.1469933245106899e-09  -8.1309220953129053e-09  -4.8954679232162663e-08  -1.3847380281629999e-07  -2.6965487855850689e-07  -1.4440775022821116e-07  2.2531652100616730e-06  1.7259450544545006e-05  8.8235370375628507e-05  3.4625103602410850e-04  8.2617138798560415e-04  -2.0794435523454214e-03  -4.3600261693874508e-02  -1.4478999234757459e-01  9.9947188935233944e-01  8.8922965671515897e+00  0.0000000000000000e+00  -2.2637504397973728e-13  -2.5741552632433358e-12  -1.1073563195705641e-11  -2.8676899819361799e-11  -5.0575982847426875e-11  -6.0184724136357434e-11  -3.3152631970179574e-11  4.9474778149397385e-11  1.8183981072480600e-10  3.1224847030657980e-10  3.2507010647565392e-10  2.8743258648547220e-11  -8.5085979317493322e-10  -2.6885086263362373e-09  -6.0752315015944386e-09  -1.2407770710330891e-08  -2.6518398199731799e-08  -6.7723786849358261e-08  -2.1439369505817148e-07  -7.6881805969169708e-07  -2.7058302601779566e-06  -7.4771974057704857e-06  -3.7016931066736113e-06  1.3155429992201285e-04  9.7227117047952549e-04  2.3544926000865622e-03  -2.4758964968141905e-02  -1.4914570240293343e-01  6.4553976151762160e-01  7.6011723734804226e+00  0.0000000000000000e+00  -1.7210387190162668e-13  -1.4927317254474082e-12  -5.2997762106713889e-12  -1.0935197385658019e-11  -1.3711428036015929e-11  -7.0981264979927535e-12  1.1188805067344585e-11  3.3656533122071908e-11  4.2940462270274335e-11  1.9392071509399907e-11  -4.4445695965345232e-11  -1.2478626051043948e-10  -1.4389481358209719e-10  6.3029252104831580e-11  8.2567943259790416e-10  2.8920245527014957e-09  8.3130645462066337e-09  2.3353242429087269e-08  6.5795107322994209e-08  1.5722364556934645e-07  1.0899897854805788e-08  -3.4081596999808377e-06  -2.3514884950320670e-05  -5.0419922168742985e-05  4.3107603387652324e-04  3.6159265319731454e-03  -9.9766763446811364e-03  -1.3424734198723862e-01  3.8754538517353926e-01  6.4560296073826322e+00  0.0000000000000000e+00  -1.1822489093662825e-13  -8.1412249249861154e-13  -2.3916603903017102e-12  -3.8406066258201247e-12  -2.9326731871888643e-12  1.3811103915930674e-12  6.7049226930235248e-12  8.0585265913970939e-12  1.9605208993418267e-12  -9.1865491880296636e-12  -1.6025513928419774e-11  -6.6636096058383247e-12  2.3228504983569317e-11  5.5129879919352821e-11  2.4838850055157075e-11  -2.1971697691398898e-10  -9.9495262760789944e-10  -2.6690774520350765e-09  -2.0523333598508947e-09  4.8413250423101889e-08  4.9712681379850096e-07  2.1015771445354803e-06  -3.7673175943746452e-06  -7.9430605770378659e-05  -7.7827897218326895e-05  3.0685990585325347e-03  -1.0427917976499158e-04  -1.1111052842351395e-01  2.0613027129585595e-01  5.4454263761078634e+00  0.0000000000000000e+00  -7.5889295938191492e-14  -4.2599105677534015e-13  -1.0389562846596463e-12  -1.2615841952087562e-12  -3.5070638306286406e-13  1.2952997507179197e-12  2.0736127905144874e-12  8.1054546161602001e-13  -1.6322845885360950e-12  -2.7060230411005552e-12  -5.5779952346104969e-13  3.3779048132659534e-12  3.9038995928660855e-12  -4.9810719113789511e-12  -2.4448619227880476e-11  -4.8739476744438847e-11  -1.0568616189670724e-10  -6.3096421588566665e-10  -5.8168872766903338e-09  -4.8708132268242375e-08  -1.8085798100012788e-07  9.5303841941199031e-07  8.6672722855750754e-06  -2.6858212591590327e-05  -3.1555047787974624e-04  1.8448065569199308e-03  5.3317803162432282e-03  -8.5925349463235934e-02  8.1542955196016315e-02  4.5583878029363971e+00  0.0000000000000000e+00  -4.6427415031817331e-14  -2.1670414249953775e-13  -4.4093097791885227e-13  -3.8998931024277299e-13  9.1558775590056222e-14  5.6746685045016125e-13  4.4668558278194699e-13  -1.9962698425600618e-13  -6.0512428135978561e-13  -2.1057663773575786e-13  5.5720868846708930e-13  6.3127419827900964e-13  -3.3178638260097251e-13  -6.7430815380466047e-13  3.6363553337593481e-12  2.1093372006575908e-11  8.9232091559429961e-11  4.6931081503487912e-10  3.7103841823464924e-09  2.0767657596854892e-08  -1.0213747447135316e-07  -1.0238941270481994e-06  5.1862241238705804e-06  2.5305171551138152e-05  -3.0763896859261323e-04  6.4461183317135755e-04  7.4898603963934459e-03  -6.2435867362842491e-02  -1.7917284498040329e-04  3.7844060271791249e+00  0.0000000000000000e+00  -2.7411193043920497e-14  -1.0813811336224165e-13  -1.8487603580125875e-13  -1.1320649458966472e-13  9.4865383765046541e-14  1.9737121353950288e-13  5.5498964461421607e-14  -1.3559889064494767e-13  -1.1335350205847109e-13  7.6563681692720007e-14  1.3852382343352067e-13  -4.0055109331525130e-14  -1.8777795886833834e-13  -8.0584797332257305e-14  -3.8323061068720054e-13  -4.8288507319222722e-12  -2.9819118405450502e-11  -1.8646009534986651e-10  -2.2264962832895592e-09  1.9257365125795958e-09  1.5160907561524204e-07  -6.2193985277737154e-07  -3.0031976983769621e-06  4.1840515501909842e-05  -1.7677705813953039e-04  -2.0580414576946377e-04  7.4910818594153532e-03  -4.2338006449190682e-02  -5.0417037606589832e-02  3.1134402041775822e+00  0.0000000000000000e+00  -1.5740778133301652e-14  -5.3240539759711150e-14  -7.7299754943231155e-14  -3.0471374221300116e-14  5.0840857538776705e-14  6.0783532589998691e-14  -7.0737197030886549e-15  -4.6295149787156737e-14  -6.6351258979806716e-15  3.5086153374590245e-14  5.9286720251647668e-15  -2.0795389897746073e-14  -4.0732170316647235e-14  1.3934055875205243e-13  -8.2496767675106718e-14  1.1562781774405663e-12  9.6548096899121410e-12  6.7587471934306050e-11  1.6311862790849608e-09  -1.8670327761384062e-08  1.9258564800580817e-08  6.9243205620455354e-07  -6.2431354065182185e-06  2.8067863481269079e-05  -3.1466528061708428e-05  -6.4668675114022104e-04  6.3110899114602161e-03  -2.6277883326706671e-02  -7.7899677299603648e-02  2.5359165053039154e+00  0.0000000000000000e+00  -8.8105849499601337e-15  -2.5997921380136433e-14  -3.2472945355265351e-14  -7.3138503855214255e-15  2.2484927098350134e-14  1.7756770679638521e-14  -8.2861916749800406e-15  -1.2435950525813285e-14  5.5987610737170819e-15  3.6568858734205183e-15  3.9342200902759343e-15  -8.8844780197833527e-15  -4.7364999526118603e-14  3.7315795356163325e-13  -1.8273994543129360e-12  7.6634539315382717e-12  -3.1951588806940992e-11  2.0467103868067397e-11  -7.9896311867802315e-10  1.9581808462306028e-08  -1.7541798544551086e-07  9.7763643866538039e-07  -3.6119198674615066e-06  4.4017846353148263e-06  6.6586390587054103e-05  -7.4925264071829651e-04  4.6509702705556377e-03  -1.4192136703327314e-02  -8.9412043110902353e-02  2.0427281179609107e+00  0.0000000000000000e+00  -4.8311014871563344e-15  -1.2688670843137024e-14  -1.3581713734809249e-14  -1.7242775232116771e-15  9.1584162723952800e-15  6.0997534589614724e-15  -7.1339009176457804e-15  4.8788004298168820e-15  -1.2549792348288294e-14  2.4705935861049626e-14  -2.9292357362942002e-14  5.1879315547466758e-15  8.4455532258414119e-14  -1.8299156558738848e-13  -9.1125675624343430e-13  1.2277400883118918e-11  -9.6760410844275426e-11  7.7670310723570923e-10  -5.3236251193454159e-09  2.6898134011276338e-08  -9.7106320889570511e-08  1.8413394449533056e-07  8.0304918556827439e-07  -1.2692439824008785e-05  1.0226791398930930e-04  -6.3522201105615454e-04  2.9739889405349298e-03  -5.6571856645527855e-03  -9.0151437862802983e-02  1.6252352455819732e+00  0.0000000000000000e+00  -2.6791307102553824e-15  -6.0606427718028462e-15  -5.5790337568375698e-15  -1.4233260401631216e-15  5.8771577065984482e-15  -6.6408955523352254e-16  -5.1037352371805603e-15  2.7791953988384322e-14  -1.0482812288657558e-13  3.1686526490476569e-13  -8.5156772247215703e-13  2.1246262991968677e-12  -5.0004658305051273e-12  1.1156859952089739e-11  -2.3581827098991685e-11  4.7892893015164410e-11  -9.6715429091895147e-11  1.0808183877974841e-10  1.1138234543734355e-09  -1.2867091768589919e-08  9.1254358229818573e-08  -5.4910934277066675e-07  3.0921646262870603e-06  -1.6842691939808658e-05  8.8107450655150934e-05  -4.2049675136393620e-04  1.5399521683154345e-03  -7.9505585816633178e-05  -8.4052434323716257e-02  1.2752651076311370e+00  0.0000000000000000e+00  -1.4911562961364851e-15  -2.5610858995003153e-15  -2.9621371802819769e-15  -9.9312447302530823e-16  7.1216602105417043e-15  -1.5471328535706445e-14  2.6254036299750696e-14  -1.4146237993109848e-15  -2.0566299205043938e-13  1.0707687100080428e-12  -4.0041153278259364e-12  1.2926975564890357e-11  -3.8241465931609788e-11  1.0644519621366821e-10  -2.8213828766373036e-10  7.1219428140526347e-10  -1.6827751113398320e-09  3.5481037424972544e-09  -5.7819351704326243e-09  1.4274738007165489e-09  5.1417401850174833e-08  -3.7030080518808661e-07  2.0292496595108068e-06  -1.0143839523641193e-05  4.7338147020653565e-05  -1.9270867477101607e-04  4.6096707496448238e-04  3.1781607601024924e-03  -7.4043254486994114e-02  9.8511193960306265e-01  0.0000000000000000e+00  -6.6177561585685438e-16  -1.0896177127353150e-15  -2.5511799499697276e-15  2.5085963715941542e-15  1.7868803721203511e-15  -2.4164058635683144e-14  8.9662547045290646e-14  -1.9052935573734957e-13  9.8848035210764307e-14  1.3218187928385589e-12  -8.2858326101143892e-12  3.4375912967307671e-11  -1.1978498746083547e-10  3.7662976175899971e-10  -1.1041245003927113e-09  3.0737688586298197e-09  -8.2222888451673025e-09  2.1300835126459673e-08  -5.3645661203347481e-08  1.3113863653874818e-07  -3.0803031188052241e-07  6.7568543668340751e-07  -1.2772936305799122e-06  1.5190846827938108e-06  1.6762417473440449e-06  -5.0545438772927027e-06  -2.4968578757447209e-04  4.7209500717491854e-03  -6.2251246565296514e-02  7.4753699302303711e-01  0.0000000000000000e+00  -1.5672179240036801e-16  -1.0461038429393203e-15  -1.0647573804021389e-15  4.9635589164836730e-15  -1.2638584578738116e-14  5.8622772769321428e-15  8.5460483951673798e-14  -4.0438423175492491e-13  1.0059255298603812e-12  -8.4157251723456297e-13  -6.2126705208420796e-12  4.4243082209554604e-11  -1.9286280983126888e-10  6.8930337068504297e-10  -2.1929476258473519e-09  6.4490293402680106e-09  -1.7919711046318744e-08  4.7749978997331149e-08  -1.2340112711566827e-07  3.1221172074015137e-07  -7.7976782664226538e-07  1.9377512971550567e-06  -4.8374289390727251e-06  1.2368779669480086e-05  -3.4274634815203833e-05  1.1946453996811553e-04  -6.3727302295675265e-04  5.0814126828886384e-03  -5.0169813419369019e-02  5.5576853544697435e-01  0.0000000000000000e+00  -1.3958429773708022e-16  -9.7179125172422958e-16  1.5717172255244796e-15  -3.5731444227707154e-17  -1.5082800099391925e-14  5.2587125047855508e-14  -6.4284095407525474e-14  -2.0394425787466852e-13  1.4032618196575897e-12  -4.2204361733076167e-12  6.0185611930815434e-12  1.3273097991927337e-11  -1.3753655972718658e-10  6.4838601536385938e-10  -2.3825551989470895e-09  7.6404880755525986e-09  -2.2435277790747185e-08  6.2003735199561434e-08  -1.6435585757258281e-07  4.2409027016783673e-07  -1.0791015355571051e-06  2.7424893710075404e-06  -7.0651894696592139e-06  1.8847211758497152e-05  -5.4090081832259595e-05  1.7978782317032440e-04  -7.7509996435283089e-04  4.7006499476221304e-03  -3.8794444313047488e-02  4.0350185046141451e-01  0.0000000000000000e+00  -2.9809474421463420e-16  -1.9821671547600432e-17  1.7313397603111738e-15  -7.0089628163639694e-15  7.3670385153007266e-15  3.2959833344102810e-14  -1.7547978363436465e-13  3.6912429492205222e-13  5.2381277441508766e-14  -3.3702356205558585e-12  1.4010386882781155e-11  -3.3378736746301619e-11  3.1144192155241637e-11  1.5816140078876382e-10  -1.1471367781758248e-09  4.8513878060932525e-09  -1.6714309620986194e-08  5.1335571874072644e-08  -1.4661138616884671e-07  3.9960500105560876e-07  -1.0598524135379431e-06  2.7823776344415111e-06  -7.3582943935208319e-06  2.0032731383684641e-05  -5.7972558797098688e-05  1.8807070469607280e-04  -7.4338070278610132e-04  3.9239146177665538e-03  -2.8733486215182784e-02  2.8489923768352482e-01  0.0000000000000000e+00  -1.7815271193330086e-16  7.2577195562209522e-16  -1.1808654685042939e-15  -3.7430223512708733e-15  2.2741650027285249e-14  -4.7195423959805998e-14  -1.7559948811120161e-14  4.3347627598055714e-13  -1.4554727810750877e-12  2.1442357414222066e-12  3.0741006602882527e-12  -3.0447110402252951e-11  1.0944394755823140e-10  -2.5312362836679748e-10  3.0339073995508622e-10  6.0879914624293929e-10  -5.6686930143212260e-09  2.4788259171675589e-08  -8.6286438551317145e-08  2.6755737728489546e-07  -7.7668915240236876e-07  2.1771017349504714e-06  -6.0409707816112698e-06  1.7013990897764698e-05  -5.0176859239654161e-05  1.6217194433455802e-04  -6.1572778405100895e-04  3.0050992603747801e-03  -2.0299156149291002e-02  1.9459001276109889e-01  0.0000000000000000e+00  1.0608370550392327e-16  2.4337187082000672e-16  -2.4967279346573033e-15  6.0586181222296358e-15  1.1369925881999223e-15  -5.5289478702305423e-14  1.8684073067504408e-13  -2.4414780619063815e-13  -5.0664813769253962e-13  3.6654159768035426e-12  -1.0269604786792910e-11  1.3837500330552044e-11  1.7547002102830077e-11  -1.7013485992764817e-10  5.9383252674952751e-10  -1.3595189856318028e-09  1.7438959614903736e-09  2.2474215831114582e-09  -2.5346556643882139e-08  1.1423491688219395e-07  -4.0686164370420774e-07  1.3008648368953624e-06  -3.9522937923286469e-06  1.1860188946021487e-05  -3.6460997139955410e-05  1.2009121900120809e-04  -4.5158291396749529e-04  2.1163251784354670e-03  -1.3582308888582641e-02  1.2767050737255700e-01  0.0000000000000000e+00  1.6563003323536071e-16  -5.7762749227670497e-16  -3.5979997961235405e-17  6.2472259399945982e-15  -2.3366444366624632e-14  3.3162539647408872e-14  6.2938377089072282e-14  -4.7128431791208417e-13  1.2459315148591958e-12  -1.2670076058136954e-12  -3.7132582548692589e-12  2.2099869835161376e-11  -5.9461568022800052e-11  8.8180229690569740e-11  2.5638115176522807e-11  -6.3109759174012625e-10  2.3004370859070686e-09  -5.1710648185778632e-09  5.8056326245401818e-09  1.3808942342852187e-08  -1.2084524179379578e-07  5.3695176614861897e-07  -1.9635572738725677e-06  6.6394752518486133e-06  -2.2098817056740070e-05  7.6431765253033658e-05  -2.9307905304437604e-04  1.3603042050848242e-03  -8.5141725505183865e-03  7.9704069226946117e-02  0.0000000000000000e+00  1.9738242821068410e-18  -5.1601882335399899e-16  2.1959814928331489e-15  -3.3397934147705282e-15  -8.0739392624395316e-15  6.0274159617615858e-14  -1.6411951434801111e-13  1.6807360311595791e-13  5.0609159844766061e-13  -2.8919657023551647e-12  7.1437629953527264e-12  -8.0802081851544233e-12  -1.2538657540335017e-11  8.9192442779889862e-11  -2.4479822332215199e-10  3.7880548989333462e-10  -1.1640266000254568e-11  -2.0603816666627862e-09  7.6175178095830091e-09  -1.5996004707525851e-08  1.0139057016851266e-08  9.4358078424546924e-08  -6.2336443152887061e-07  2.7442372443422279e-06  -1.0665228566747640e-05  4.0660891087584539e-05  -1.6502485472449251e-04  7.8385320049824674e-04  -4.9174682385215683e-03  4.6721062063939785e-02  0.0000000000000000e+00  -1.0931781565165006e-16  1.3458753788417194e-16  1.0563832685912213e-15  -6.5963291222790426e-15  1.8236680439458148e-14  -1.8066926723530238e-14  -6.9484451295186649e-14  3.8717068239934257e-13  -9.5531876025094025e-13  1.0225576848539455e-12  1.9747896801076845e-12  -1.2401814958025266e-11  3.1357850415261866e-11  -4.0969724770769522e-11  -2.1142468655592280e-11  2.6938658658878604e-10  -7.7206393209143979e-10  1.1795088992881888e-09  8.7875267869935032e-11  -6.7934615190376949e-09  2.3502872278101627e-08  -4.1293601115336077e-08  -2.9138652785149678e-08  6.2616982063826128e-07  -3.6077151104177712e-06  1.6843596654606179e-05  -7.7023541035390098e-05  3.9158527067806743e-04  -2.5488832003916157e-03  2.5218865653838383e-02  0.0000000000000000e+00  -7.6070767651601446e-17  4.2382186880705797e-16  -1.0949861682015294e-15  1.4750688136398530e-16  1.0810736108071608e-14  -4.9015176794231136e-14  1.1880106782281297e-13  -1.2509906628611722e-13  -2.8040261348405967e-13  1.7188362654044519e-12  -4.3652049646757840e-12  5.6763465442366419e-12  3.0571208138124621e-12  -3.6622799366187441e-11  1.0005492934035324e-10  -1.4113975501679705e-10  -2.3678386701691415e-11  7.2185282713180462e-10  -2.1060316814110515e-09  2.9934386549548962e-09  1.5869764253470673e-09  -2.2691958770448876e-08  6.8387889614307030e-08  -6.9524527613825785e-08  -5.0228736819392148e-07  4.4947565765677668e-06  -2.6962494629274869e-05  1.5917581768623711e-04  -1.1344798938159712e-03  1.2161875797568663e-02  0.0000000000000000e+00  -6.3263896031561245e-18  2.0329763984803620e-16  -1.2410544124447303e-15  4.4278049855502208e-15  -9.6236443951172929e-15  5.856