<?xml version="1.0"?>
<VTKFile type="UnstructuredGrid"  version="0.1"  >
<UnstructuredGrid>
<Piece  NumberOfPoints="961" NumberOfCells="1800">
<Points>
<DataArray  type="Float64"  NumberOfComponents="3"  format="ascii">-1 -1 0  -0.9333333333333333 -1 0  -0.8666666666666667 -1 0  -0.8 -1 0  -0.7333333333333334 -1 0  -0.6666666666666667 -1 0  -0.6 -1 0  -0.5333333333333333 -1 0  -0.4666666666666667 -1 0  -0.4 -1 0  -0.3333333333333334 -1 0  -0.2666666666666667 -1 0  -0.2 -1 0  -0.1333333333333333 -1 0  -0.06666666666666665 -1 0  0 -1 0  0.06666666666666665 -1 0  0.1333333333333333 -1 0  0.2 -1 0  0.2666666666666666 -1 0  0.3333333333333333 -1 0  0.3999999999999999 -1 0  0.4666666666666666 -1 0  0.5333333333333334 -1 0  0.6000000000000001 -1 0  0.6666666666666667 -1 0  0.7333333333333334 -1 0  0.8 -1 0  0.8666666666666667 -1 0  0.9333333333333333 -1 0  1 -1 0  -1 -0.9333333333333333 0  -0.9333333333333333 -0.9333333333333333 0  -0.8666666666666667 -0.9333333333333333 0  -0.8 -0.9333333333333333 0  -0.7333333333333334 -0.9333333333333333 0  -0.6666666666666667 -0.9333333333333333 0  -0.6 -0.9333333333333333 0  -0.5333333333333333 -0.9333333333333333 0  -0.4666666666666667 -0.9333333333333333 0  -0.4 -0.9333333333333333 0  -0.3333333333333334 -0.9333333333333333 0  -0.2666666666666667 -0.9333333333333333 0  -0.2 -0.9333333333333333 0  -0.1333333333333333 -0.9333333333333333 0  -0.06666666666666665 -0.9333333333333333 0  0 -0.9333333333333333 0  0.06666666666666665 -0.9333333333333333 0  0.1333333333333333 -0.9333333333333333 0  0.2 -0.9333333333333333 0  0.2666666666666666 -0.9333333333333333 0  0.3333333333333333 -0.9333333333333333 0  0.3999999999999999 -0.9333333333333333 0  0.4666666666666666 -0.9333333333333333 0  0.5333333333333334 -0.9333333333333333 0  0.6000000000000001 -0.9333333333333333 0  0.6666666666666667 -0.9333333333333333 0  0.7333333333333334 -0.9333333333333333 0  0.8 -0.9333333333333333 0  0.8666666666666667 -0.9333333333333333 0  0.9333333333333333 -0.9333333333333333 0  1 -0.9333333333333333 0  -1 -0.8666666666666667 0  -0.9333333333333333 -0.8666666666666667 0  -0.8666666666666667 -0.8666666666666667 0  -0.8 -0.8666666666666667 0  -0.7333333333333334 -0.8666666666666667 0  -0.6666666666666667 -0.8666666666666667 0  -0.6 -0.8666666666666667 0  -0.5333333333333333 -0.8666666666666667 0  -0.4666666666666667 -0.8666666666666667 0  -0.4 -0.8666666666666667 0  -0.3333333333333334 -0.8666666666666667 0  -0.2666666666666667 -0.8666666666666667 0  -0.2 -0.8666666666666667 0  -0.1333333333333333 -0.8666666666666667 0  -0.06666666666666665 -0.8666666666666667 0  0 -0.8666666666666667 0  0.06666666666666665 -0.8666666666666667 0  0.1333333333333333 -0.8666666666666667 0  0.2 -0.8666666666666667 0  0.2666666666666666 -0.8666666666666667 0  0.3333333333333333 -0.8666666666666667 0  0.3999999999999999 -0.8666666666666667 0  0.4666666666666666 -0.8666666666666667 0  0.5333333333333334 -0.8666666666666667 0  0.6000000000000001 -0.8666666666666667 0  0.6666666666666667 -0.8666666666666667 0  0.7333333333333334 -0.8666666666666667 0  0.8 -0.8666666666666667 0  0.8666666666666667 -0.8666666666666667 0  0.9333333333333333 -0.8666666666666667 0  1 -0.8666666666666667 0  -1 -0.8 0  -0.9333333333333333 -0.8 0  -0.8666666666666667 -0.8 0  -0.8 -0.8 0  -0.7333333333333334 -0.8 0  -0.6666666666666667 -0.8 0  -0.6 -0.8 0  -0.5333333333333333 -0.8 0  -0.4666666666666667 -0.8 0  -0.4 -0.8 0  -0.3333333333333334 -0.8 0  -0.2666666666666667 -0.8 0  -0.2 -0.8 0  -0.1333333333333333 -0.8 0  -0.06666666666666665 -0.8 0  0 -0.8 0  0.06666666666666665 -0.8 0  0.1333333333333333 -0.8 0  0.2 -0.8 0  0.2666666666666666 -0.8 0  0.3333333333333333 -0.8 0  0.3999999999999999 -0.8 0  0.4666666666666666 -0.8 0  0.5333333333333334 -0.8 0  0.6000000000000001 -0.8 0  0.6666666666666667 -0.8 0  0.7333333333333334 -0.8 0  0.8 -0.8 0  0.8666666666666667 -0.8 0  0.9333333333333333 -0.8 0  1 -0.8 0  -1 -0.7333333333333334 0  -0.9333333333333333 -0.7333333333333334 0  -0.8666666666666667 -0.7333333333333334 0  -0.8 -0.7333333333333334 0  -0.7333333333333334 -0.7333333333333334 0  -0.6666666666666667 -0.7333333333333334 0  -0.6 -0.7333333333333334 0  -0.5333333333333333 -0.7333333333333334 0  -0.4666666666666667 -0.7333333333333334 0  -0.4 -0.7333333333333334 0  -0.3333333333333334 -0.7333333333333334 0  -0.2666666666666667 -0.7333333333333334 0  -0.2 -0.7333333333333334 0  -0.1333333333333333 -0.7333333333333334 0  -0.06666666666666665 -0.7333333333333334 0  0 -0.7333333333333334 0  0.06666666666666665 -0.7333333333333334 0  0.1333333333333333 -0.7333333333333334 0  0.2 -0.7333333333333334 0  0.2666666666666666 -0.7333333333333334 0  0.3333333333333333 -0.7333333333333334 0  0.3999999999999999 -0.7333333333333334 0  0.4666666666666666 -0.7333333333333334 0  0.5333333333333334 -0.7333333333333334 0  0.6000000000000001 -0.7333333333333334 0  0.6666666666666667 -0.7333333333333334 0  0.7333333333333334 -0.7333333333333334 0  0.8 -0.7333333333333334 0  0.8666666666666667 -0.7333333333333334 0  0.9333333333333333 -0.7333333333333334 0  1 -0.7333333333333334 0  -1 -0.6666666666666667 0  -0.9333333333333333 -0.6666666666666667 0  -0.8666666666666667 -0.6666666666666667 0  -0.8 -0.6666666666666667 0  -0.7333333333333334 -0.6666666666666667 0  -0.6666666666666667 -0.6666666666666667 0  -0.6 -0.6666666666666667 0  -0.5333333333333333 -0.6666666666666667 0  -0.4666666666666667 -0.6666666666666667 0  -0.4 -0.6666666666666667 0  -0.3333333333333334 -0.6666666666666667 0  -0.2666666666666667 -0.6666666666666667 0  -0.2 -0.6666666666666667 0  -0.1333333333333333 -0.6666666666666667 0  -0.06666666666666665 -0.6666666666666667 0  0 -0.6666666666666667 0  0.06666666666666665 -0.6666666666666667 0  0.1333333333333333 -0.6666666666666667 0  0.2 -0.6666666666666667 0  0.2666666666666666 -0.6666666666666667 0  0.3333333333333333 -0.6666666666666667 0  0.3999999999999999 -0.6666666666666667 0  0.4666666666666666 -0.6666666666666667 0  0.5333333333333334 -0.6666666666666667 0  0.6000000000000001 -0.6666666666666667 0  0.6666666666666667 -0.6666666666666667 0  0.7333333333333334 -0.6666666666666667 0  0.8 -0.6666666666666667 0  0.8666666666666667 -0.6666666666666667 0  0.9333333333333333 -0.6666666666666667 0  1 -0.6666666666666667 0  -1 -0.6 0  -0.9333333333333333 -0.6 0  -0.8666666666666667 -0.6 0  -0.8 -0.6 0  -0.7333333333333334 -0.6 0  -0.6666666666666667 -0.6 0  -0.6 -0.6 0  -0.5333333333333333 -0.6 0  -0.4666666666666667 -0.6 0  -0.4 -0.6 0  -0.3333333333333334 -0.6 0  -0.2666666666666667 -0.6 0  -0.2 -0.6 0  -0.1333333333333333 -0.6 0  -0.06666666666666665 -0.6 0  0 -0.6 0  0.06666666666666665 -0.6 0  0.1333333333333333 -0.6 0  0.2 -0.6 0  0.2666666666666666 -0.6 0  0.3333333333333333 -0.6 0  0.3999999999999999 -0.6 0  0.4666666666666666 -0.6 0  0.5333333333333334 -0.6 0  0.6000000000000001 -0.6 0  0.6666666666666667 -0.6 0  0.7333333333333334 -0.6 0  0.8 -0.6 0  0.8666666666666667 -0.6 0  0.9333333333333333 -0.6 0  1 -0.6 0  -1 -0.5333333333333333 0  -0.9333333333333333 -0.5333333333333333 0  -0.8666666666666667 -0.5333333333333333 0  -0.8 -0.5333333333333333 0  -0.7333333333333334 -0.5333333333333333 0  -0.6666666666666667 -0.5333333333333333 0  -0.6 -0.5333333333333333 0  -0.5333333333333333 -0.5333333333333333 0  -0.4666666666666667 -0.5333333333333333 0  -0.4 -0.5333333333333333 0  -0.3333333333333334 -0.5333333333333333 0  -0.2666666666666667 -0.5333333333333333 0  -0.2 -0.5333333333333333 0  -0.1333333333333333 -0.5333333333333333 0  -0.06666666666666665 -0.5333333333333333 0  0 -0.5333333333333333 0  0.06666666666666665 -0.5333333333333333 0  0.1333333333333333 -0.5333333333333333 0  0.2 -0.5333333333333333 0  0.2666666666666666 -0.5333333333333333 0  0.3333333333333333 -0.5333333333333333 0  0.3999999999999999 -0.5333333333333333 0  0.4666666666666666 -0.5333333333333333 0  0.5333333333333334 -0.5333333333333333 0  0.6000000000000001 -0.5333333333333333 0  0.6666666666666667 -0.5333333333333333 0  0.7333333333333334 -0.5333333333333333 0  0.8 -0.5333333333333333 0  0.8666666666666667 -0.5333333333333333 0  0.9333333333333333 -0.5333333333333333 0  1 -0.5333333333333333 0  -1 -0.4666666666666667 0  -0.9333333333333333 -0.4666666666666667 0  -0.8666666666666667 -0.4666666666666667 0  -0.8 -0.4666666666666667 0  -0.7333333333333334 -0.4666666666666667 0  -0.6666666666666667 -0.4666666666666667 0  -0.6 -0.4666666666666667 0  -0.5333333333333333 -0.4666666666666667 0  -0.4666666666666667 -0.4666666666666667 0  -0.4 -0.4666666666666667 0  -0.3333333333333334 -0.4666666666666667 0  -0.2666666666666667 -0.4666666666666667 0  -0.2 -0.4666666666666667 0  -0.1333333333333333 -0.4666666666666667 0  -0.06666666666666665 -0.4666666666666667 0  0 -0.4666666666666667 0  0.06666666666666665 -0.4666666666666667 0  0.1333333333333333 -0.4666666666666667 0  0.2 -0.4666666666666667 0  0.2666666666666666 -0.4666666666666667 0  0.3333333333333333 -0.4666666666666667 0  0.3999999999999999 -0.4666666666666667 0  0.4666666666666666 -0.4666666666666667 0  0.5333333333333334 -0.4666666666666667 0  0.6000000000000001 -0.4666666666666667 0  0.6666666666666667 -0.4666666666666667 0  0.7333333333333334 -0.4666666666666667 0  0.8 -0.4666666666666667 0  0.8666666666666667 -0.4666666666666667 0  0.9333333333333333 -0.4666666666666667 0  1 -0.4666666666666667 0  -1 -0.4 0  -0.9333333333333333 -0.4 0  -0.8666666666666667 -0.4 0  -0.8 -0.4 0  -0.7333333333333334 -0.4 0  -0.6666666666666667 -0.4 0  -0.6 -0.4 0  -0.5333333333333333 -0.4 0  -0.4666666666666667 -0.4 0  -0.4 -0.4 0  -0.3333333333333334 -0.4 0  -0.2666666666666667 -0.4 0  -0.2 -0.4 0  -0.1333333333333333 -0.4 0  -0.06666666666666665 -0.4 0  0 -0.4 0  0.06666666666666665 -0.4 0  0.1333333333333333 -0.4 0  0.2 -0.4 0  0.2666666666666666 -0.4 0  0.3333333333333333 -0.4 0  0.3999999999999999 -0.4 0  0.4666666666666666 -0.4 0  0.5333333333333334 -0.4 0  0.6000000000000001 -0.4 0  0.6666666666666667 -0.4 0  0.7333333333333334 -0.4 0 
[...]
<PointData  Scalars="f_24"> 
<DataArray  type="Float64"  Name="f_24"  format="ascii">0.0000000000000000e+00  0.0000000000000000e+00  0.0000000000000000e+00  0.0000000000000000e+00  0.0000000000000000e+00  0.0000000000000000e+00  0.0000000000000000e+00  0.0000000000000000e+00  0.0000000000000000e+00  0.0000000000000000e+00  0.0000000000000000e+00  0.0000000000000000e+00  0.0000000000000000e+00  0.0000000000000000e+00  0.0000000000000000e+00  0.0000000000000000e+00  0.0000000000000000e+00  0.0000000000000000e+00  0.0000000000000000e+00  0.0000000000000000e+00  0.0000000000000000e+00  0.0000000000000000e+00  0.0000000000000000e+00  0.0000000000000000e+00  0.0000000000000000e+00  0.0000000000000000e+00  0.0000000000000000e+00  0.0000000000000000e+00  0.0000000000000000e+00  0.0000000000000000e+00  1.2904663042837230e+01  0.0000000000000000e+00  4.5957169648216202e-02  1.0515461530729754e-01  1.6435707025575014e-01  2.2023225076298608e-01  2.7309740961459039e-01  3.2358834642446421e-01  3.7242959725659475e-01  4.2039526758976759e-01  4.6830792659626153e-01  5.1706064570973875e-01  5.6764385113501059e-01  6.2117841606969904e-01  6.7896032165021381e-01  7.4252133884605720e-01  8.1371253341359495e-01  8.9482017654687507e-01  9.8872759190777404e-01  1.0991432084457151e+00  1.2309254504752969e+00  1.3905514242760739e+00  1.5868029164457853e+00  1.8317879624820421e+00  2.1424953778403752e+00  2.5432292316845966e+00  3.0695731472281156e+00  3.7751883426110715e+00  4.7444488566421441e+00  6.1177207642375935e+00  8.1530311228271515e+00  1.1268176520495011e+01  0.0000000000000000e+00  8.6988371018698551e-02  1.9412685718485262e-01  2.9053760277473500e-01  3.6644945050940281e-01  4.2214788671803227e-01  4.5945051014285426e-01  4.8112412399029342e-01  4.9014425054996957e-01  4.8935883896510207e-01  4.8131347720033379e-01  4.6817339486851778e-01  4.5172317138121182e-01  4.3341241179430817e-01  4.1442832905478910e-01  3.9578723150965567e-01  3.7844411471326200e-01  3.6342975970495367e-01  3.5203731821598827e-01  3.4609877207519757e-01  3.4842290238490597e-01  3.6352100902216750e-01  3.9884463368346601e-01  4.6694051339058007e-01  5.8927348571482896e-01  8.0317157660816441e-01  1.1749426364709350e+00  1.8260146797083945e+00  2.9920343783785732e+00  5.1722288365143267e+00  9.7925044040224201e+00  0.0000000000000000e+00  1.2126389529458523e-01  2.5959096116252955e-01  3.6386478385956023e-01  4.1921464834862837e-01  4.3192209646188201e-01  4.1215589386879398e-01  3.7126764101230014e-01  3.1904591347948236e-01  2.6297572930815377e-01  2.0817210467919886e-01  1.5774148404050928e-01  1.1328608721205319e-01  7.5379742355411117e-02  4.3956304470426588e-02  1.8596329479852122e-02  -1.2751325797274110e-03  -1.6254346285212225e-02  -2.6859853091050784e-02  -3.3433503132800108e-02  -3.5988030297611738e-02  -3.3901067748512752e-02  -2.5246726510095775e-02  -5.3170174647936327e-03  3.6630619468693497e-02  1.2447480134063800e-01  3.1070736151043532e-01  7.1126329798184440e-01  1.5865515371110019e+00  3.5746658692497566e+00  8.4667494224055062e+00  0.0000000000000000e+00  1.4784589421504293e-01  3.0034970559542556e-01  3.8827976716548285e-01  3.9932378661971207e-01  3.5621553688289948e-01  2.8476575845638286e-01  2.0691211826109532e-01  1.3645469180003869e-01  8.0032754015166060e-02  3.9116422980199329e-02  1.2236643271798539e-02  -3.3395602298079020e-03  -1.0570121138709298e-02  -1.2102591813698261e-02  -1.0075128092753665e-02  -6.1024143662111808e-03  -1.3470863937585867e-03  3.3799243223823702e-03  7.5193068951035832e-03  1.0678236300399468e-02  1.2581091915153445e-02  1.3127705490642416e-02  1.2806860580857306e-02  1.4219699893163932e-02  2.6820500615856509e-02  8.0449012497415789e-02  2.6145595530889665e-01  8.1247105897184002e-01  2.4096442862697902e+00  7.2803966650167737e+00  0.0000000000000000e+00  1.6659570394544543e-01  3.1927350764325862e-01  3.7713913560505180e-01  3.4038529116355892e-01  2.5532639537924812e-01  1.6243391752156275e-01  8.6495659788147647e-02  3.5410059060235040e-02  6.9921812484426710e-03  -5.1830221059842446e-03  -7.7385170578330191e-03  -5.7834942450524784e-03  -2.5795392174777876e-03  1.4022181093656947e-04  1.6811695267456288e-03  1.9582582641479002e-03  1.1895393537344563e-03  -2.9452556537724016e-04  -2.1577885753284809e-03  -4.1166171300279272e-03  -5.9838342110982339e-03  -7.7332615165709032e-03  -9.5917672592447500e-03  -1.1923138420319931e-02  -1.3605170791505973e-02  -3.9619244248090841e-03  6.8257249414507254e-02  3.9440793727473522e-01  1.6442579189822797e+00  6.2233135816151774e+00  0.0000000000000000e+00  1.7799795466938845e-01  3.2117530879944128e-01  3.4528526273413751e-01  2.7034088940731843e-01  1.6586395629933376e-01  7.8367641112484857e-02  2.4739707984641840e-02  4.2491676367770805e-04  -5.9502050784879332e-03  -4.5962734317873356e-03  -1.6138531059440079e-03  4.2944778807180146e-04  1.0904602863660406e-03  8.1233174888423513e-04  2.0048214228077799e-04  -2.8557078258636162e-04  -4.0300145454444998e-04  -9.0170502789094998e-05  5.9679471430229623e-04  1.5422590545124595e-03  2.6127339790732356e-03  3.6665167704509343e-03  4.4747052690337222e-03  4.4080198382219589e-03  2.0512337961379880e-03  -2.4182232155815484e-03  1.1979382844726391e-02  1.7978704328364631e-01  1.0955132495630402e+00  5.2857499823461307e+00  0.0000000000000000e+00  1.8294050997501096e-01  3.1117529655808113e-01  3.0471624082060944e-01  2.0571774715375857e-01  1.0046387375768884e-01  3.1413548423826362e-02  1.4611581085942256e-03  -5.1416704533668789e-03  -3.1025464297306268e-03  -4.1816597089786305e-04  6.9488236505090863e-04  5.8489554423683853e-04  1.1608025779352486e-04  -1.8973079100604890e-04  -2.1630096645235857e-04  -7.7237914469119616e-05  5.5367209115231628e-05  4.8268089978659952e-05  -1.6186510817926643e-04  -5.7280389734027976e-04  -1.1329328076830959e-03  -1.7482560769147076e-03  -2.2833765839981022e-03  -2.6626486486104697e-03  -3.5894058123166536e-03  -7.7467901964628520e-03  -1.2049977838931563e-02  6.1063747788165708e-02  7.1585475316891145e-01  4.4583380377414965e+00  0.0000000000000000e+00  1.8250563997298949e-01  2.9374898230741936e-01  2.6336745699206282e-01  1.5334135545491520e-01  5.8042337621698761e-02  9.1905350505362294e-03  -4.0799598764503092e-03  -3.0953091240426855e-03  -3.4577770278989038e-04  5.8007271677559997e-04  3.3924364093794923e-04  -3.6711206103532876e-05  -1.4042978453256551e-04  -5.6498119139674783e-05  4.0820369562054765e-05  6.3872252071731924e-05  2.8333595291324093e-05  1.0853363610776491e-06  4.9228501351285211e-05  2.1225400250384285e-04  4.9364889667204387e-04  8.6300559477213705e-04  1.2907163516741251e-03  1.8129863265357250e-03  2.4060807514816617e-03  1.0924527594709588e-03  -7.2466445570815718e-03  1.2283432461024178e-02  4.5443239707008481e-01  3.7320922787196040e+00  0.0000000000000000e+00  1.7780751223029656e-01  2.7234971898554927e-01  2.2559881157715006e-01  1.1413870414408353e-01  3.2713388360303533e-02  3.0455914095981769e-04  -3.7319928680490449e-03  -9.8339745499977289e-04  4.5511584495730955e-04  3.0477856731924433e-04  -3.2710865953681751e-05  -9.9214512353689452e-05  -1.5221667967691171e-05  3.2697624564481393e-05  1.7925539446271665e-05  -1.3342395498419667e-05  -2.3095619381525389e-05  -1.5021435119665885e-05  -2.1306496837544067e-05  -7.8711061915221348e-05  -2.1149348132233289e-04  -4.2337552128721839e-04  -7.1662381796362240e-04  -1.0265739976351379e-03  -1.1167980308429083e-03  -1.2215017181458974e-03  -7.3946265146250488e-03  -1.3180543724061277e-02  2.6991837759096787e-01  3.0984095965852183e+00  0.0000000000000000e+00  1.6988601595512415e-01  2.4939456007639238e-01  1.9324228153244960e-01  8.6336378573119210e-02  1.8507506152527869e-02  -2.4722221221427742e-03  -2.3418032566407390e-03  1.4499474250845551e-06  3.9445164869148609e-04  2.8783924640878934e-05  -8.1112392092065255e-05  -1.8207288744942751e-05  2.4526510381558206e-05  8.0983152764079632e-06  -8.2948901449538072e-06  -4.9181653724636438e-06  6.4332610243422894e-06  1.0875379428722450e-05  1.2402204926127221e-05  3.0144006565711450e-05  8.7620610159790699e-05  1.9912758304074750e-04  3.7489504418452890e-04  5.4772900997271065e-04  8.5166757132748236e-04  1.5469343030035205e-03  -7.3266397008115542e-04  -1.6308649429733913e-02  1.5167513361590582e-01  2.5490692430295776e+00  0.0000000000000000e+00  1.5965042188918832e-01  2.2642583452096177e-01  1.6659809398014991e-01  6.7404555277414388e-02  1.0972962673598213e-02  -2.8741246368582923e-03  -1.2913629526141712e-03  2.7866734752272752e-04  2.0316187516079801e-04  -5.9549343757159702e-05  -3.5771979449546940e-05  1.3586736595178422e-05  1.0496891143481521e-05  -5.9150336525195300e-06  -2.9427690012570293e-06  2.3226720626068211e-06  9.2520508706382836e-07  -3.9267017747146128e-06  -6.8907834036170298e-06  -1.2486938468933182e-05  -3.5306834903126144e-05  -8.7287209411099958e-05  -1.8749762277534156e-04  -3.0849962254233360e-04  -5.8618329567716634e-04  -2.7632838939603836e-04  -9.0465607195605743e-04  -1.6249408370724919e-02  6.8407954617276515e-02  2.0762328301303588e+00  0.0000000000000000e+00  1.4785968536076138e-01  2.0432493913863101e-01  1.4516720435327646e-01  5.4980850397105208e-02  7.2614259418599799e-03  -2.5448395980553827e-03  -7.1855202435667565e-04  2.8453462471948081e-04  8.4236528779722602e-05  -5.8885130800007249e-05  -5.3033797598735822e-06  1.2104228246556539e-05  -4.7274996488334237e-08  -4.0172930356961492e-06  1.3548323078742004e-06  1.0030137689234490e-06  -6.5762848303974485e-07  2.6374655935204889e-07  2.8192556596852514e-06  5.3970544107970935e-06  1.4369913498672264e-05  3.4359505780473677e-05  9.3496042488718829e-05  1.5999976638547754e-04  2.9437916017268473e-04  3.8466001682117812e-04  1.7747110962529960e-03  -1.0840271177752559e-02  2.1349234499980486e-02  1.6724443303517049e+00  0.0000000000000000e+00  1.3512596947037625e-01  1.8351364095851944e-01  1.2811311158419561e-01  4.7180966113353165e-02  5.7265836798464174e-03  -2.0904713764854184e-03  -4.7305727826588292e-04  2.2709271435049976e-04  3.6586868038259712e-05  -4.0976973027335431e-05  3.2210323270948518e-06  6.3530830914658257e-06  -1.9864498118295431e-06  -1.2182751308118023e-06  1.1595696500955325e-06  -1.9416339220384045e-07  -3.2885440617688905e-07  1.1065261908807050e-07  -6.4205547145146232e-07  -1.9971396313443898e-06  -6.3202420729954384e-06  -1.1163973983807226e-05  -4.8121115321592928e-05  -6.0072377733677287e-05  -2.0776504145987221e-04  -2.6162103003915261e-04  5.0621996753293130e-04  -6.7154849097688972e-03  -1.0467348509190538e-02  1.3306300765442076e+00  0.0000000000000000e+00  1.2193068422387676e-01  1.6411761479638109e-01  1.1451863725609283e-01  4.2611174088123475e-02  5.4950968124522293e-03  -1.6661349851152501e-03  -4.1284146859163056e-04  1.6924891093038485e-04  2.7401652943705547e-05  -2.7237046976229344e-05  2.1408710923094028e-06  3.5924353716026519e-06  -1.2134651510015319e-06  -3.6513247743962108e-07  4.1482692708952687e-07  -1.6265760026610996e-07  1.1720802883032189e-08  7.5829017366182540e-08  1.5464372467828940e-07  3.4134262861433724e-07  3.1939956235102206e-06  1.6766781777576575e-06  2.5779553060308533e-05  1.3121005142073938e-05  1.5108048678751914e-04  -6.9567494735743184e-05  1.1335080475042127e-03  -2.5555675558682693e-03  -2.3845254862138846e-02  1.0440987619449145e+00  0.0000000000000000e+00  1.0864563710903397e-01  1.4608848583470979e-01  1.0351058327123304e-01  4.0267642031272248e-02  6.1457076719067692e-03  -1.2461443289797473e-03  -4.5060128063716641e-04  1.1380958174533998e-04  3.5118315655345529e-05  -1.7554124362338331e-05  -1.4922974249740867e-06  2.4283127757034803e-06  -1.8676071660128888e-07  -2.0867293589343427e-07  7.3630936110570290e-08  -3.2665301415580412e-08  9.6737522787516358e-09  1.0677742558622443e-08  -1.3047707288065159e-07  2.8618811787244113e-07  -2.1872064857862000e-06  2.3485581166835174e-06  -1.6394671802779729e-05  5.3897277283576123e-06  -7.4830253154724478e-05  -6.2616416087818563e-05  -4.4636945717062519e-06  1.2740404619524960e-04  -3.1318489614611054e-02  8.0654144017732687e-01  0.0000000000000000e+00  9.5554827147234705e-02  1.2929006071705845e-01  9.4309561889311250e-02  3.9412830291881459e-02  7.4979774587993790e-03  -7.2776969393334348e-04  -5.3013597777795121e-04  4.4669760349129282e-05  4.6832311439961082e-05  -6.8768792251438335e-06  -4.7122583287266088e-06  8.4676012707099690e-07  4.4409902821467741e-07  6.0291726280195035e-09  4.6111461234533176e-09  1.3578385168864210e-09  -1.0973063353015984e-08  1.7837421693116603e-08  4.5901686717626081e-08  -2.7362595390468019e-07  1.3063240956794392e-06  -2.8822217104722381e-06  1.0562839300122276e-05  -1.1878666990419961e-05  5.2494734850943106e-05  -1.5749184904891645e-05  8.0887141703671664e-05  1.7883872908669369e-03  -3.0550582149551649e-02  6.1203152525140125e-01  0.0000000000000000e+00  8.2874378227273671e-02  1.1355711632983681e-01  8.6243513987164330e-02  3.9465988427642568e-02  9.4747029832709107e-03  3.5357981948631714e-05  -5.8964683974775873e-04  -5.5043855239299235e-05  4.8072172621772145e-05  7.8915424082852649e-06  -4.3770110223141384e-06  -1.3842373214899520e-06  4.7011707335593183e-08  6.8011189103983151e-08  9.3898283393400543e-10  2.5353320137798414e-10  -2.6712590704373929e-08  1.1055214025064127e-07  -2.9348933676614224e-07  8.7963626517905986e-07  -2.6311424938292897e-06  5.9570355141429510e-06  -1.4579329696089395e-05  2.7336837769824969e-05  -6.7037125284414884e-05  1.1876305733669612e-04  -4.8920849626838997e-04  2.6228543558413308e-03  -2.8219921925604134e-02  4.5502479156354836e-01  0.0000000000000000e+00  7.0769689473575925e-02  9.8734536624042524e-02  7.8748501230394258e-02  3.9920572910417895e-02  1.2003464051301678e-02  1.2149070760796681e-03  -5.2522190125832945e-04  -1.8403397169395621e-04  1.7579046275140921e-05  2.1100193895595914e-05  2.6050183153983788e-06  -1.4576639412761924e-06  -8.0805652108391003e-07  -2.8544376605278921e-07  -1.0670070146374340e-07  -8.3916510501660685e-09  1.5487233319852088e-08  8.0304572199863379e-08  -3.2002745543712037e-08  -2.6204590011020888e-07  4.8534106248606903e-07  -1.6280921554226289e-06  3.0572210432286052e-06  -3.2446190806972041e-07  -9.1446633217625390e-06  8.8045882718999974e-05  -4.0218694190843381e-04  2.6819500017827222e-03  -2.3108552087049625e-02  3.3035937389663317e-01  0.0000000000000000e+00  5.9369283395560482e-02  8.4702916072694118e-02  7.1369741709567752e-02  4.0293361399497636e-02  1.4936942073098676e-02  2.9707987910072369e-03  -1.6515290846116795e-04  -2.8845839951307129e-04  -6.1296057299768545e-05  1.2259517177314313e-05  1.1182771149140464e-05  3.4734943510898844e-06  6.9150160075301033e-07  1.8425445786445442e-07  1.7393036117966353e-07  1.9861521401478132e-07  1.2949279281879673e-07  9.9835900966023384e-08  -5.0607287004200581e-07  6.6033325417589294e-07  -2.7461170349034606e-06  5.9613440029269752e-06  -1.2197005726209807e-05  2.7810338207617839e-05  -6.0250630184499908e-05  1.5451502676897141e-04  -5.3204594440933121e-04  2.4733278274793199e-03  -1.8309584947524379e-02  2.3325576741997525e-01  0.0000000000000000e+00  4.8775865239953274e-02  7.1394846429949449e-02  6.3769063541848484e-02  4.0108814581330414e-02  1.7990009406618764e-02  5.3764457847430011e-03  7.1889323739599800e-04  -2.1754836653772842e-04  -1.5772807971429684e-04  -4.1246666617346092e-05  -2.5192968932277714e-07  5.2366099783542169e-06  3.4655062238867807e-06  1.8531564103274565e-06  9.5580996420179772e-07  3.7510122263915508e-07  -8.5440753651899262e-08  -5.3087714925266906e-07  -5.5235676593771415e-07  -9.3494992341495803e-07  7.7858131073313159e-07  -4.3262908714647428e-07  2.3310183637064141e-06  5.6351407035205200e-06  -2.0496210957753136e-05  9.5579760074829289e-05  -3.8593954629218772e-04  1.9413946027383405e-03  -1.3303394055226909e-02  1.5931682768934860e-01  0.0000000000000000e+00  3.9074339573521272e-02  5.8804338065434940e-02  5.5739553002618854e-02  3.8921667730492333e-02  2.0709930739619426e-02  8.3105084647010878e-03  2.3264422077215819e-03  2.8727356224830515e-04  -1.2583341548378261e-04  -1.0644818464164417e-04  -4.7366319816937805e-05  -1.6764301527631715e-05  -5.8135793932113862e-06  -2.6925823720743410e-06  -2.0613881513997904e-06  -2.0878867532083388e-06  -2.1446156532921909e-06  -1.8492157398675128e-06  -1.4119968804634068e-06  5.8354261359005734e-07  5.7508735722348621e-09  6.0953277776833042e-06  -3.1529055748990632e-06  1.8276006981444244e-05  -3.1940632104249235e-05  9.7347640795103586e-05  -3.2663878536281317e-04  1.4442897464955508e-03  -9.2396162039667783e-03  1.0452777064698163e-01  0.0000000000000000e+00  3.0337784012429377e-02  4.6990784132577616e-02  4.7224819221470524e-02  3.6377141715255322e-02  2.2508710601885546e-02  1.1358364792658761e-02  4.6551268929628303e-03  1.4921531387024377e-03  3.1571381567722825e-04  -1.1077033986744260e-05  -5.9983638944192786e-05  -4.6041684993126628e-05  -2.8772859546190763e-05  -1.7703801538740016e-05  -1.1308238185093455e-05  -7.2737723005712708e-06  -4.1416197555337570e-06  -1.3250637085892807e-06  1.8613944886048993e-06  3.9309844081877570e-06  7.5086745003774413e-06  6.4012116007522317e-06  9.0178043906577426e-06  7.0147146808971678e-06  -5.9726742548786607e-06  4.9454271943463141e-05  -1.9564260015527085e-04  9.3206241507720654e-04  -5.8789957577547909e-03  6.5256172621557196e-02  0.0000000000000000e+00  2.2630883098475642e-02  3.6077127060150462e-02  3.8336096177495317e-02  3.2298799819532154e-02  2.2782560196960400e-02  1.3806979452117070e-02  7.3082146555084005e-03  3.4213517283742082e-03  1.4310772295163708e-03  5.3853465412257015e-04  1.8240995538598890e-04  5.5108357965999434e-05  1.5046564396623129e-05  5.3047924583223875e-06  5.2844067181617788e-06  8.1491319618979157e-06  1.1640010533053779e-05  1.5066884234093251e-05  1.7461431031502029e-05  1.9454286736746536e-05  1.8294158618996357e-05  1.8413330807388581e-05  1.1874475622483306e-05  1.4218483116545064e-05  -4.3047001090325184e-06  3.5214224893967644e-05  -1.1950025144592803e-04  5.5468573924252014e-04  -3.4633960182156882e-03  3.8251970328212551e-02  0.0000000000000000e+00  1.6011186005252889e-02  2.6242307175642118e-02  2.9359117374273092e-02  2.6781843701753964e-02  2.1115140537712813e-02  1.4820055758619548e-02  9.4551970748174927e-03  5.5884720770674285e-03  3.1224666619151012e-03  1.6882512215062621e-03  9.0803534377201255e-04  5.0147489835501615e-04  2.9375731863179056e-04  1.8739598905887699e-04  1.3159738045364399e-04  1.0087789413402287e-04  8.2510227189566010e-05  6.9877080703515724e-05  5.9970909248918328e-05  5.0101225454296623e-05  4.1478115718385190e-05  3.0576991453299403e-05  2.3397243925559255e-05  1.3175332304261399e-05  7.2127815442664314e-06  1.3427358508443727e-05  -5.0959230549329462e-05  2.7516233693500590e-04  -1.8051415513640296e-03  2.0647460868539549e-02  0.0000000000000000e+00  1.0528838373814251e-02  1.7705489951348248e-02  2.0739415970414243e-02  2.0255012877993275e-02  1.7507785376032033e-02  1.3800957941252894e-02  1.0122446781780937e-02  7.0246304076342862e-03  4.6864408055958696e-03  3.0542847298902025e-03  1.9759151667232927e-03  1.2881374681074607e-03  8.5694579766260070e-04  5.8676694121836568e-04  4.1484182306424745e-04  3.0218146587376329e-04  2.2513362718924108e-04  1.6988969653611611e-04  1.2789537127015266e-04  9.5324990081747162e-05  6.8188886629115929e-05  4.7624066602621405e-05  2.9760891058437945e-05  1.8454785896389846e-05  8.2548450303037954e-06  7.7135482672131023e-06  -1.7978276813859391e-05  1.1318458718686462e-04  -8.0681946608937246e-04  9.9573017305842736e-03  0.0000000000000000e+00  6.2198312718157525e-03  1.0700323568376855e-02  1.3036708219380015e-02  1.3470940469181831e-02  1.2530360218970074e-02  1.0800481861181897e-02  8.7824720014428297e-03  6.8272748704033097e-03  5.1305029327258110e-03  3.7640003607873731e-03  2.7199072203325540e-03  1.9505848724538522e-03  1.3964744734307147e-03