<?xml version="1.0"?>
<VTKFile type="UnstructuredGrid"  version="0.1"  >
<UnstructuredGrid>
<Piece  NumberOfPoints="961" NumberOfCells="1800">
<Points>
<DataArray  type="Float64"  NumberOfComponents="3"  format="ascii">-1 -1 0  -0.9333333333333333 -1 0  -0.8666666666666667 -1 0  -0.8 -1 0  -0.7333333333333334 -1 0  -0.6666666666666667 -1 0  -0.6 -1 0  -0.5333333333333333 -1 0  -0.4666666666666667 -1 0  -0.4 -1 0  -0.3333333333333334 -1 0  -0.2666666666666667 -1 0  -0.2 -1 0  -0.1333333333333333 -1 0  -0.06666666666666665 -1 0  0 -1 0  0.06666666666666665 -1 0  0.1333333333333333 -1 0  0.2 -1 0  0.2666666666666666 -1 0  0.3333333333333333 -1 0  0.3999999999999999 -1 0  0.4666666666666666 -1 0  0.5333333333333334 -1 0  0.6000000000000001 -1 0  0.6666666666666667 -1 0  0.7333333333333334 -1 0  0.8 -1 0  0.8666666666666667 -1 0  0.9333333333333333 -1 0  1 -1 0  -1 -0.9333333333333333 0  -0.9333333333333333 -0.9333333333333333 0  -0.8666666666666667 -0.9333333333333333 0  -0.8 -0.9333333333333333 0  -0.7333333333333334 -0.9333333333333333 0  -0.6666666666666667 -0.9333333333333333 0  -0.6 -0.9333333333333333 0  -0.5333333333333333 -0.9333333333333333 0  -0.4666666666666667 -0.9333333333333333 0  -0.4 -0.9333333333333333 0  -0.3333333333333334 -0.9333333333333333 0  -0.2666666666666667 -0.9333333333333333 0  -0.2 -0.9333333333333333 0  -0.1333333333333333 -0.9333333333333333 0  -0.06666666666666665 -0.9333333333333333 0  0 -0.9333333333333333 0  0.06666666666666665 -0.9333333333333333 0  0.1333333333333333 -0.9333333333333333 0  0.2 -0.9333333333333333 0  0.2666666666666666 -0.9333333333333333 0  0.3333333333333333 -0.9333333333333333 0  0.3999999999999999 -0.9333333333333333 0  0.4666666666666666 -0.9333333333333333 0  0.5333333333333334 -0.9333333333333333 0  0.6000000000000001 -0.9333333333333333 0  0.6666666666666667 -0.9333333333333333 0  0.7333333333333334 -0.9333333333333333 0  0.8 -0.9333333333333333 0  0.8666666666666667 -0.9333333333333333 0  0.9333333333333333 -0.9333333333333333 0  1 -0.9333333333333333 0  -1 -0.8666666666666667 0  -0.9333333333333333 -0.8666666666666667 0  -0.8666666666666667 -0.8666666666666667 0  -0.8 -0.8666666666666667 0  -0.7333333333333334 -0.8666666666666667 0  -0.6666666666666667 -0.8666666666666667 0  -0.6 -0.8666666666666667 0  -0.5333333333333333 -0.8666666666666667 0  -0.4666666666666667 -0.8666666666666667 0  -0.4 -0.8666666666666667 0  -0.3333333333333334 -0.8666666666666667 0  -0.2666666666666667 -0.8666666666666667 0  -0.2 -0.8666666666666667 0  -0.1333333333333333 -0.8666666666666667 0  -0.06666666666666665 -0.8666666666666667 0  0 -0.8666666666666667 0  0.06666666666666665 -0.8666666666666667 0  0.1333333333333333 -0.8666666666666667 0  0.2 -0.8666666666666667 0  0.2666666666666666 -0.8666666666666667 0  0.3333333333333333 -0.8666666666666667 0  0.3999999999999999 -0.8666666666666667 0  0.4666666666666666 -0.8666666666666667 0  0.5333333333333334 -0.8666666666666667 0  0.6000000000000001 -0.8666666666666667 0  0.6666666666666667 -0.8666666666666667 0  0.7333333333333334 -0.8666666666666667 0  0.8 -0.8666666666666667 0  0.8666666666666667 -0.8666666666666667 0  0.9333333333333333 -0.8666666666666667 0  1 -0.8666666666666667 0  -1 -0.8 0  -0.9333333333333333 -0.8 0  -0.8666666666666667 -0.8 0  -0.8 -0.8 0  -0.7333333333333334 -0.8 0  -0.6666666666666667 -0.8 0  -0.6 -0.8 0  -0.5333333333333333 -0.8 0  -0.4666666666666667 -0.8 0  -0.4 -0.8 0  -0.3333333333333334 -0.8 0  -0.2666666666666667 -0.8 0  -0.2 -0.8 0  -0.1333333333333333 -0.8 0  -0.06666666666666665 -0.8 0  0 -0.8 0  0.06666666666666665 -0.8 0  0.1333333333333333 -0.8 0  0.2 -0.8 0  0.2666666666666666 -0.8 0  0.3333333333333333 -0.8 0  0.3999999999999999 -0.8 0  0.4666666666666666 -0.8 0  0.5333333333333334 -0.8 0  0.6000000000000001 -0.8 0  0.6666666666666667 -0.8 0  0.7333333333333334 -0.8 0  0.8 -0.8 0  0.8666666666666667 -0.8 0  0.9333333333333333 -0.8 0  1 -0.8 0  -1 -0.7333333333333334 0  -0.9333333333333333 -0.7333333333333334 0  -0.8666666666666667 -0.7333333333333334 0  -0.8 -0.7333333333333334 0  -0.7333333333333334 -0.7333333333333334 0  -0.6666666666666667 -0.7333333333333334 0  -0.6 -0.7333333333333334 0  -0.5333333333333333 -0.7333333333333334 0  -0.4666666666666667 -0.7333333333333334 0  -0.4 -0.7333333333333334 0  -0.3333333333333334 -0.7333333333333334 0  -0.2666666666666667 -0.7333333333333334 0  -0.2 -0.7333333333333334 0  -0.1333333333333333 -0.7333333333333334 0  -0.06666666666666665 -0.7333333333333334 0  0 -0.7333333333333334 0  0.06666666666666665 -0.7333333333333334 0  0.1333333333333333 -0.7333333333333334 0  0.2 -0.7333333333333334 0  0.2666666666666666 -0.7333333333333334 0  0.3333333333333333 -0.7333333333333334 0  0.3999999999999999 -0.7333333333333334 0  0.4666666666666666 -0.7333333333333334 0  0.5333333333333334 -0.7333333333333334 0  0.6000000000000001 -0.7333333333333334 0  0.6666666666666667 -0.7333333333333334 0  0.7333333333333334 -0.7333333333333334 0  0.8 -0.7333333333333334 0  0.8666666666666667 -0.7333333333333334 0  0.9333333333333333 -0.7333333333333334 0  1 -0.7333333333333334 0  -1 -0.6666666666666667 0  -0.9333333333333333 -0.6666666666666667 0  -0.8666666666666667 -0.6666666666666667 0  -0.8 -0.6666666666666667 0  -0.7333333333333334 -0.6666666666666667 0  -0.6666666666666667 -0.6666666666666667 0  -0.6 -0.6666666666666667 0  -0.5333333333333333 -0.6666666666666667 0  -0.4666666666666667 -0.6666666666666667 0  -0.4 -0.6666666666666667 0  -0.3333333333333334 -0.6666666666666667 0  -0.2666666666666667 -0.6666666666666667 0  -0.2 -0.6666666666666667 0  -0.1333333333333333 -0.6666666666666667 0  -0.06666666666666665 -0.6666666666666667 0  0 -0.6666666666666667 0  0.06666666666666665 -0.6666666666666667 0  0.1333333333333333 -0.6666666666666667 0  0.2 -0.6666666666666667 0  0.2666666666666666 -0.6666666666666667 0  0.3333333333333333 -0.6666666666666667 0  0.3999999999999999 -0.6666666666666667 0  0.4666666666666666 -0.6666666666666667 0  0.5333333333333334 -0.6666666666666667 0  0.6000000000000001 -0.6666666666666667 0  0.6666666666666667 -0.6666666666666667 0  0.7333333333333334 -0.6666666666666667 0  0.8 -0.6666666666666667 0  0.8666666666666667 -0.6666666666666667 0  0.9333333333333333 -0.6666666666666667 0  1 -0.6666666666666667 0  -1 -0.6 0  -0.9333333333333333 -0.6 0  -0.8666666666666667 -0.6 0  -0.8 -0.6 0  -0.7333333333333334 -0.6 0  -0.6666666666666667 -0.6 0  -0.6 -0.6 0  -0.5333333333333333 -0.6 0  -0.4666666666666667 -0.6 0  -0.4 -0.6 0  -0.3333333333333334 -0.6 0  -0.2666666666666667 -0.6 0  -0.2 -0.6 0  -0.1333333333333333 -0.6 0  -0.06666666666666665 -0.6 0  0 -0.6 0  0.06666666666666665 -0.6 0  0.1333333333333333 -0.6 0  0.2 -0.6 0  0.2666666666666666 -0.6 0  0.3333333333333333 -0.6 0  0.3999999999999999 -0.6 0  0.4666666666666666 -0.6 0  0.5333333333333334 -0.6 0  0.6000000000000001 -0.6 0  0.6666666666666667 -0.6 0  0.7333333333333334 -0.6 0  0.8 -0.6 0  0.8666666666666667 -0.6 0  0.9333333333333333 -0.6 0  1 -0.6 0  -1 -0.5333333333333333 0  -0.9333333333333333 -0.5333333333333333 0  -0.8666666666666667 -0.5333333333333333 0  -0.8 -0.5333333333333333 0  -0.7333333333333334 -0.5333333333333333 0  -0.6666666666666667 -0.5333333333333333 0  -0.6 -0.5333333333333333 0  -0.5333333333333333 -0.5333333333333333 0  -0.4666666666666667 -0.5333333333333333 0  -0.4 -0.5333333333333333 0  -0.3333333333333334 -0.5333333333333333 0  -0.2666666666666667 -0.5333333333333333 0  -0.2 -0.5333333333333333 0  -0.1333333333333333 -0.5333333333333333 0  -0.06666666666666665 -0.5333333333333333 0  0 -0.5333333333333333 0  0.06666666666666665 -0.5333333333333333 0  0.1333333333333333 -0.5333333333333333 0  0.2 -0.5333333333333333 0  0.2666666666666666 -0.5333333333333333 0  0.3333333333333333 -0.5333333333333333 0  0.3999999999999999 -0.5333333333333333 0  0.4666666666666666 -0.5333333333333333 0  0.5333333333333334 -0.5333333333333333 0  0.6000000000000001 -0.5333333333333333 0  0.6666666666666667 -0.5333333333333333 0  0.7333333333333334 -0.5333333333333333 0  0.8 -0.5333333333333333 0  0.8666666666666667 -0.5333333333333333 0  0.9333333333333333 -0.5333333333333333 0  1 -0.5333333333333333 0  -1 -0.4666666666666667 0  -0.9333333333333333 -0.4666666666666667 0  -0.8666666666666667 -0.4666666666666667 0  -0.8 -0.4666666666666667 0  -0.7333333333333334 -0.4666666666666667 0  -0.6666666666666667 -0.4666666666666667 0  -0.6 -0.4666666666666667 0  -0.5333333333333333 -0.4666666666666667 0  -0.4666666666666667 -0.4666666666666667 0  -0.4 -0.4666666666666667 0  -0.3333333333333334 -0.4666666666666667 0  -0.2666666666666667 -0.4666666666666667 0  -0.2 -0.4666666666666667 0  -0.1333333333333333 -0.4666666666666667 0  -0.06666666666666665 -0.4666666666666667 0  0 -0.4666666666666667 0  0.06666666666666665 -0.4666666666666667 0  0.1333333333333333 -0.4666666666666667 0  0.2 -0.4666666666666667 0  0.2666666666666666 -0.4666666666666667 0  0.3333333333333333 -0.4666666666666667 0  0.3999999999999999 -0.4666666666666667 0  0.4666666666666666 -0.4666666666666667 0  0.5333333333333334 -0.4666666666666667 0  0.6000000000000001 -0.4666666666666667 0  0.6666666666666667 -0.4666666666666667 0  0.7333333333333334 -0.4666666666666667 0  0.8 -0.4666666666666667 0  0.8666666666666667 -0.4666666666666667 0  0.9333333333333333 -0.4666666666666667 0  1 -0.4666666666666667 0  -1 -0.4 0  -0.9333333333333333 -0.4 0  -0.8666666666666667 -0.4 0  -0.8 -0.4 0  -0.7333333333333334 -0.4 0  -0.6666666666666667 -0.4 0  -0.6 -0.4 0  -0.5333333333333333 -0.4 0  -0.4666666666666667 -0.4 0  -0.4 -0.4 0  -0.3333333333333334 -0.4 0  -0.2666666666666667 -0.4 0  -0.2 -0.4 0  -0.1333333333333333 -0.4 0  -0.06666666666666665 -0.4 0  0 -0.4 0  0.06666666666666665 -0.4 0  0.1333333333333333 -0.4 0  0.2 -0.4 0  0.2666666666666666 -0.4 0  0.3333333333333333 -0.4 0  0.3999999999999999 -0.4 0  0.4666666666666666 -0.4 0  0.5333333333333334 -0.4 0  0.6000000000000001 -0.4 0  0.6666666666666667 -0.4 0  0.7333333333333334 -0.4 0 
[...]
<PointData  Scalars="f_24"> 
<DataArray  type="Float64"  Name="f_24"  format="ascii">0.0000000000000000e+00  0.0000000000000000e+00  0.0000000000000000e+00  0.0000000000000000e+00  0.0000000000000000e+00  0.0000000000000000e+00  0.0000000000000000e+00  0.0000000000000000e+00  0.0000000000000000e+00  0.0000000000000000e+00  0.0000000000000000e+00  0.0000000000000000e+00  0.0000000000000000e+00  0.0000000000000000e+00  0.0000000000000000e+00  0.0000000000000000e+00  0.0000000000000000e+00  0.0000000000000000e+00  0.0000000000000000e+00  0.0000000000000000e+00  0.0000000000000000e+00  0.0000000000000000e+00  0.0000000000000000e+00  0.0000000000000000e+00  0.0000000000000000e+00  0.0000000000000000e+00  0.0000000000000000e+00  0.0000000000000000e+00  0.0000000000000000e+00  0.0000000000000000e+00  1.5143762367255743e+01  0.0000000000000000e+00  -2.4266555779058410e-08  -5.5472408070658860e-07  -2.7018701931273011e-06  -8.1142728018868141e-06  -1.8468015370300522e-05  -3.4577446310505993e-05  -5.4927834023885705e-05  -7.3268756415249600e-05  -7.4656049655770664e-05  -2.8921540795896545e-05  1.2013156637356551e-04  4.7265758891524407e-04  1.2026181983936257e-03  2.6076670437671316e-03  5.1928475417369283e-03  9.8115394757763239e-03  1.7903435247416589e-02  3.1896556786733428e-02  5.5884395102318705e-02  9.6757130511520267e-02  1.6606183424278323e-01  2.8298154605793291e-01  4.7891161094424106e-01  8.0405377137684875e-01  1.3360310456203424e+00  2.1896033167718243e+00  3.5259262607072506e+00  5.5638200199890884e+00  8.6195476468813563e+00  1.3223327643055567e+01  0.0000000000000000e+00  -6.6955365820854077e-08  -9.2469390235849306e-07  -4.1262793182976664e-06  -1.1792036348297317e-05  -2.5961481961136376e-05  -4.7989506566054753e-05  -7.8075877517609507e-05  -1.1496436973645447e-04  -1.5582209704875129e-04  -1.9631686630819598e-04  -2.3093052884486621e-04  -2.5355543348199166e-04  -2.5836290287546221e-04  -2.4066584464626809e-04  -1.9667046616371261e-04  -1.1877205162741120e-04  2.2607859402044099e-05  3.3326715677713836e-04  1.1395705732977323e-03  3.3457298214025380e-03  9.2681072419359464e-03  2.4475629419667674e-02  6.1602159277818667e-02  1.4768546217351045e-01  3.3713917872731070e-01  7.3271952344727598e-01  1.5177438248899564e+00  3.0122000174927184e+00  5.8197397445892713e+00  1.1491610372355490e+01  0.0000000000000000e+00  -9.7043347184885143e-08  -1.0334238522727965e-06  -4.1849395191085187e-06  -1.1030361257535977e-05  -2.2456748197129733e-05  -3.8504453092734802e-05  -5.8562719572382405e-05  -8.1899285548574325e-05  -1.0838250643078497e-04  -1.3930965938291608e-04  -1.7833637365530624e-04  -2.3260189451645768e-04  -3.1428327235369851e-04  -4.4304578527045298e-04  -6.5029201570562236e-04  -9.8690180163164137e-04  -1.5374060875109595e-03  -2.4447897761316366e-03  -3.9483728309088690e-03  -6.4207901847160246e-03  -1.0322957400748269e-02  -1.5787338721440870e-02  -2.1009046355972748e-02  -1.7516087035974202e-02  2.1461931030526207e-02  1.6577196597025956e-01  5.7623924377864444e-01  1.5994981916036330e+00  4.0089930121386947e+00  9.9358224891564930e+00  0.0000000000000000e+00  -1.0910643210443277e-07  -9.4702853099653515e-07  -3.4319019306183028e-06  -8.1143951627297382e-06  -1.4667049108176073e-05  -2.2019847745259859e-05  -2.8857134361042117e-05  -3.4114654571491640e-05  -3.7234368423756898e-05  -3.8105373106437376e-05  -3.6728538314271256e-05  -3.2681444481176313e-05  -2.4449922258114474e-05  -8.6691833417973218e-06  2.0666487860530960e-05  7.2789635876168612e-05  1.5961883319218919e-04  2.9101167749624518e-04  4.5684557459782548e-04  5.7380893904282471e-04  3.5655955106580258e-04  -9.0764058694815396e-04  -4.4609261436099387e-03  -1.0878471574541334e-02  -1.3867016571957188e-02  1.9652809691023405e-02  2.0049240627598072e-01  8.3749277006205158e-01  2.7596525899568674e+00  8.5436246315297044e+00  0.0000000000000000e+00  -1.0562666330217668e-07  -7.6485433760048085e-07  -2.4545944685484018e-06  -5.0941902723236036e-06  -7.8894528704266216e-06  -9.7996019987260326e-06  -1.0090247735138823e-05  -8.5940384577401351e-06  -5.6242654409473450e-06  -1.7039503367952506e-06  2.6923857206305060e-06  7.2550887237277310e-06  1.1777500549871093e-05  1.5955171489680511e-05  1.9150200637007142e-05  2.0324968397163925e-05  1.8568737534427715e-05  1.5028726238687564e-05  1.7092975111651925e-05  4.1813813505238597e-05  9.4515560991535627e-05  3.3857014351888457e-05  -8.5279204469935631e-04  -4.5002738727235774e-03  -1.3044018821157785e-02  -1.8209464558016801e-02  4.0672807644199935e-02  4.0430534029405063e-01  1.8759100584118285e+00  7.3031261416163895e+00  0.0000000000000000e+00  -9.2297256132340002e-08  -5.6564260383927878e-07  -1.5976622920947599e-06  -2.8627669106948397e-06  -3.6747304105923968e-06  -3.5282247295812278e-06  -2.4294750557407858e-06  -8.1974249813815485e-07  7.2558369638402825e-07  1.7615139260236194e-06  2.0727279927644154e-06  1.6275961501039876e-06  4.8092927461931419e-07  -1.2856925129617159e-06  -3.5433661408455560e-06  -6.0243014017527560e-06  -8.1886001487067253e-06  -8.9379396793719043e-06  -5.2326069414924736e-06  1.4228572409901867e-05  8.8482431872501436e-05  3.0790941563163234e-04  7.0435935814068258e-04  5.6836880952999250e-04  -2.9694663630424824e-03  -1.2974705265077621e-02  -6.9120200066954199e-03  1.7802332517579722e-01  1.2615326277413825e+00  6.2028850656279531e+00  0.0000000000000000e+00  -7.4806388269413671e-08  -3.9243485516296751e-07  -9.7317258205151074e-07  -1.4873643173475518e-06  -1.5292123917073833e-06  -1.0203527012911776e-06  -2.5459129690107338e-07  3.6634522525550774e-07  6.0041612499310192e-07  4.4893708453955570e-07  7.8924800589367671e-08  -2.9999453300618451e-07  -5.1646975587438928e-07  -4.6062640056357076e-07  -8.5278886904059006e-08  5.6311261419936326e-07  1.2243690933276653e-06  1.0873469184874477e-06  -2.1298123609835419e-06  -1.4062325488741178e-05  -4.2652299914334874e-05  -7.1602823332012427e-05  1.6432632906023252e-05  3.4084000904697321e-04  -2.3534812062775057e-04  -6.6119631806601954e-03  -1.8314073571630136e-02  5.8429941918229221e-02  8.2388198374706056e-01  5.2319081538459420e+00  0.0000000000000000e+00  -5.7248378552992268e-08  -2.5969873173288788e-07  -5.6585538048246455e-07  -7.3164447878877539e-07  -5.7941416284258945e-07  -2.1097732470460069e-07  1.1403986952580986e-07  2.2328183852783977e-07  1.3406769640978132e-07  -1.9960550494934945e-08  -1.1333766680008029e-07  -9.8586695633944114e-08  -3.9119847536684367e-09  1.0363024470326292e-07  1.5443156756840941e-07  1.0808787124362752e-07  8.2999509345457631e-09  1.1564263094295991e-07  1.1561158106100124e-06  4.2021577219209209e-06  7.5037835396116151e-06  2.3857731195307501e-07  -2.8679315132195331e-06  1.9502191004058670e-04  7.2741879543421163e-04  -1.2356722842592753e-03  -1.3579680808319658e-02  3.9283875679193394e-03  5.2266433920548905e-01  4.3796508606220526e+00  0.0000000000000000e+00  -4.1879962212996423e-08  -1.6587383328859656e-07  -3.1871072414986168e-07  -3.4723603775347085e-07  -2.0168609278582334e-07  -7.5428672399516299e-09  8.9914260999332804e-08  6.5898226862403086e-08  -2.8783709840911175e-09  -3.8924956207977709e-08  -2.4534109078902365e-08  9.6328056949395855e-09  2.6669379889058223e-08  1.2247941914080685e-08  -2.1931464889984094e-08  -5.1491019969372262e-08  -6.4065482956707871e-08  -1.0251444553999969e-07  -3.0250143249416545e-07  -6.5055775583671347e-07  -2.9908424394074019e-07  -2.1428297016864708e-06  -3.0640963093890457e-05  -6.3435037088003125e-05  2.5811437416566236e-04  4.1982137337606012e-04  -7.7975256077175061e-03  -1.8120431567900292e-02  3.1261448325028579e-01  3.6360173443781032e+00  0.0000000000000000e+00  -2.9541200132699276e-08  -1.0312727092518438e-07  -1.7582229388844447e-07  -1.6159028986333460e-07  -6.4418383545214423e-08  2.2633938869653034e-08  3.9345195455734389e-08  9.8371722724306304e-09  -1.3455858839647388e-08  -1.0695881249342550e-08  2.7622771090426016e-09  7.7149308587114231e-09  1.5216587737976410e-09  -5.5241577741309341e-09  -3.8093551520335808e-09  7.2644040428259373e-09  2.1402214342768890e-08  3.6414071852859254e-08  5.3415506331450029e-08  -1.8794108600443393e-09  6.8969211677441795e-08  3.4127955750607910e-06  8.7090909992608754e-06  -2.5456592225798558e-05  4.6074771034040461e-05  7.8077877053729444e-04  -2.6455172192677338e-03  -2.2576503890692264e-02  1.7259227332472873e-01  2.9913604676060741e+00  0.0000000000000000e+00  -2.0214279862373244e-08  -6.2787145832990426e-08  -9.5805648808123772e-08  -7.4845332251227728e-08  -1.8609631794705774e-08  1.6771859404603648e-08  1.3621394861146333e-08  -1.7476665787512347e-09  -5.9289460506630025e-09  -6.5271773401835906e-10  2.6998822012597558e-09  8.5735562454192462e-10  -1.5079871188159663e-09  -8.6511854063678650e-10  1.1008233544659278e-09  6.1860646099634323e-10  -3.7101888863621356e-09  -9.4226824600546963e-09  -4.5178491284015559e-09  3.5276958685548642e-08  -1.9922265169846989e-07  -1.2971159342394550e-06  1.8315296765143792e-06  -4.7859248125747195e-06  -8.2044268104235945e-05  4.1997513722464100e-04  -3.3876173504663662e-06  -1.9500046604034899e-02  7.9818461443338887e-02  2.4364817968680685e+00  0.0000000000000000e+00  -1.3473314323967582e-08  -3.7588658848744546e-08  -5.1888269947619881e-08  -3.5005603122456809e-08  -4.6981711210410421e-09  8.9153966266605289e-09  4.0929760371752434e-09  -2.0795241941400697e-09  -1.7036779684459294e-09  6.5425036261650943e-10  7.2863182703444778e-10  -3.1922711006699521e-10  -3.6929719713193299e-10  2.4164661226634401e-10  2.4690145165714297e-10  -2.0827933140262700e-10  2.1066842594913485e-10  1.6615154253717809e-09  -2.1272464814557714e-09  -1.0948995099372454e-08  1.4225495609953098e-07  -4.0213833991042222e-08  -2.6110808973285740e-07  1.0141598271957821e-05  -4.0310558055485501e-05  7.6620681347348545e-05  1.2154026400445612e-03  -1.3771238383214358e-02  2.2200254606413769e-02  1.9626316027963442e+00  0.0000000000000000e+00  -8.7696606410678046e-09  -2.2184495475393907e-08  -2.8054690319104409e-08  -1.6757569284914019e-08  -9.8259513405144225e-10  4.2224864492898523e-09  1.1441562174842129e-09  -1.0668103500418097e-09  -3.7083265422707612e-10  3.6179894557115377e-10  9.0775036040368274e-11  -1.6112872636468875e-10  1.5955979667994859e-13  8.5511306671545587e-11  -4.0032968844391737e-11  -5.7058125567993912e-11  -4.0479826807924360e-11  -1.1668722129837276e-11  1.8918191627086813e-09  -1.7774336289832430e-09  -5.2982846767508871e-08  2.6513736217083142e-07  -1.5074972307851242e-06  3.8983371515011532e-06  -4.7971762896566151e-06  -1.1055481329099255e-04  1.2524849688167752e-03  -7.9619204368370187e-03  -1.1897904527827741e-02  1.5615088600932925e+00  0.0000000000000000e+00  -5.5812893330916400e-09  -1.2924024034600591e-08  -1.5181296445231755e-08  -8.3015326676146784e-09  -1.9521440314116954e-10  1.9182727854595585e-09  3.4224892883518729e-10  -4.4351216584252495e-10  -6.7680464183830140e-11  1.2745497238961394e-10  -7.7236675769745498e-12  -3.8020708862659142e-11  1.6360323128353497e-11  1.0305067307395489e-11  -1.4558133826384859e-11  -9.4339437318288762e-12  1.6617621245459199e-10  -6.2175105015674884e-10  6.3161919997264368e-10  9.3741342308296822e-10  1.0936740034939162e-09  -3.5517008859394178e-08  4.9447686354013536e-07  -3.2099775120581339e-06  2.3168452230559924e-05  -1.4692687066523351e-04  8.7907604954721096e-04  -3.2483833612124086e-03  -2.9437183836292409e-02  1.2252612475314473e+00  0.0000000000000000e+00  -3.4737335597440537e-09  -7.4326004182486559e-09  -8.2280231712744807e-09  -4.2811382327864515e-09  -1.1484311566325993e-10  8.6327618058980799e-10  1.3924271635724560e-10  -1.7014067600145788e-10  -1.6401264037628481e-11  3.7866222201650915e-11  -7.2585373392671958e-12  1.7033660800113265e-12  -2.8074832664086591e-11  1.0347895545351803e-10  -3.0231018125673394e-10  8.3011232315437834e-10  -2.2872754365279308e-09  6.3953953243716656e-09  -1.7422751963595146e-08  4.5255576115555347e-08  -1.0704453307973249e-07  2.0351079789397544e-07  -1.6774905547219492e-07  -1.4885593826332743e-06  1.2763466310667761e-05  -7.6508792359910425e-05  3.2993989057846196e-04  9.0356204810745512e-05  -3.6368852160723490e-02  9.4648514795348393e-01  0.0000000000000000e+00  -2.1124431299289757e-09  -4.2153659919077244e-09  -4.4614133860702591e-09  -2.2958077690294946e-09  -1.4301463412849460e-10  3.8599374521523313e-10  8.1172643027917110e-11  -6.2271493242270730e-11  -6.6487829495770146e-12  3.8463198983573179e-12  6.8019626064613223e-12  1.1238380421485354e-11  -1.1673841499089473e-10  5.0218346865931762e-10  -1.7200568062435890e-09  5.2477790567649130e-09  -1.4782853726677889e-08  3.8903239486047299e-08  -9.6165571651024250e-08  2.2425358613763062e-07  -4.9654697730714460e-07  1.0500423426302287e-06  -2.1172377094977815e-06  4.0392706080817629e-06  -6.9782969015652855e-06  1.4580616729361634e-05  -1.2058280078066668e-04  2.0879630894342222e-03  -3.6533984028097634e-02  7.1822564827221813e-01  0.0000000000000000e+00  -1.2527610855547411e-09  -2.3526071613508604e-09  -2.4128373325355563e-09  -1.2698368303752308e-09  -1.5366362801372051e-10  1.6638433719574509e-10  5.3305751496041877e-11  -1.8933734757031913e-11  -1.4893097593707031e-12  -1.6504491293470920e-11  3.9852053460119461e-11  -3.7007908785127737e-11  -1.2734393740975900e-10  9.0909444463157578e-10  -3.5842104157754407e-09  1.1332663558394033e-08  -3.1456817246653863e-08  7.9985598721564878e-08  -1.9168872126263237e-07  4.4274807901630309e-07  -1.0033281893211835e-06  2.2647779233606391e-06  -5.1722726210509390e-06  1.2226666946820320e-05  -3.1402812233514661e-05  9.6901103734317847e-05  -4.2710210946343198e-04  3.0219017247629107e-03  -3.2896486001427326e-02  5.3397653947060653e-01  0.0000000000000000e+00  -7.2232337043293906e-10  -1.2877128687808258e-09  -1.2952308145641878e-09  -7.1490242757445989e-10  -1.3858266284408870e-10  6.2967084175546648e-11  3.2484091095884699e-11  1.4783336117252923e-12  -4.7979848441860533e-12  -1.6984105757552588e-11  6.5272835761825498e-11  -1.3938966743099330e-10  1.2840240084148022e-10  4.2767966926692038e-10  -2.8988658436736063e-09  1.0813123509821729e-08  -3.2603867599501431e-08  8.7613705339953412e-08  -2.1919847088193884e-07  5.2416681544494863e-07  -1.2230887536092968e-06  2.8418187514797853e-06  -6.7254953817610120e-06  1.6673428287480328e-05  -4.5034712001232403e-05  1.4106409683408867e-04  -5.6274789659618905e-04  3.1825200403257856e-03  -2.7399886253704302e-02  3.8768031660174707e-01  0.0000000000000000e+00  -4.0317410427646134e-10  -6.8797031637858935e-10  -6.8555265651964919e-10  -4.0312611178525038e-10  -1.1025589039443890e-10  1.3991620770029461e-11  1.7922578951880520e-11  9.1555650677195637e-12  -1.4257769519779447e-11  1.2743435195795935e-11  2.0267964290296502e-11  -1.3712286413081720e-10  3.8059104734286938e-10  -6.5229555339682570e-10  2.9162986663923237e-10  3.0327546919343063e-09  -1.5968647806301488e-08  5.5550168799706819e-08  -1.6313931097875393e-07  4.3708397597682207e-07  -1.1119506469429649e-06  2.7624091595151323e-06  -6.8752147350910650e-06  1.7648004394429747e-05  -4.8521610881864325e-05  1.5061188555499187e-04  -5.6832945425801848e-04  2.8648828182886075e-03  -2.1394897088313020e-02  2.7372817878887828e-01  0.0000000000000000e+00  -2.1655069335061735e-10  -3.5645334966101154e-10  -3.5471990200521268e-10  -2.2372928620451286e-10  -7.9785851758007963e-11  -7.1152597483801445e-12  9.7974239594791800e-12  4.1611879034184741e-12  -1.0460006145126514e-11  3.3638297292543764e-11  -6.2435335393614768e-11  4.7283080957057447e-11  1.3989525392591315e-10  -7.1403040555914898e-10  1.8234824987157394e-09  -2.9320060582821071e-09  1.0211262928685341e-09  1.4033497233549152e-08  -7.0784817283845829e-08  2.4390349562016712e-07  -7.2396362943910925e-07  2.0023727631985056e-06  -5.3967618265110065e-06  1.4692218798373931e-05  -4.1960367072703347e-05  1.3186274448698707e-04  -4.8662778439368374e-04  2.3035084791434160e-03  -1.5708193162977398e-02  1.8696002922537963e-01  0.0000000000000000e+00  -1.1102759174710684e-10  -1.7757284282715023e-10  -1.7745215571245842e-10  -1.2009497949419886e-10  -5.3196152221447575e-11  -1.2511671077268236e-11  3.6209857455956634e-12  -3.7336420733565305e-12  8.1740388972350142e-12  4.8939759362201199e-12  -5.2278909560755472e-11  1.5040540131778222e-10  -2.6059057051193560e-10  1.9608310762570948e-10  4.8449492981726628e-10  -2.4325433043659918e-09  5.8301937232722803e-09  -7.8585660312649970e-09  -4.6780032783586763e-09  7.5080119749979200e-08  -3.2875808575498421e-07  1.1145259463854610e-06  -3.4125883044839934e-06  1.0117821125294885e-05  -3.0557441161072882e-05  9.8923662501787806e-05  -3.6547148510491812e-04  1.6776555638192449e-03  -1.0815736753718792e-02  1.2266447517477160e-01  0.0000000000000000e+00  -5.3748136145046584e-11  -8.4055684670976932e-11  -8.4623998059553768e-11  -6.1341868193961624e-11  -3.2311666899417360e-11  -1.0656335239951850e-11  -2.5372384256871299e-12  -1.9568808452793115e-12  1.2063996736397280e-11  -2.6693670770564148e-11  3.3876218504037483e-11  9.8650328587141434e-12  -1.7201373705769167e-10  4.9001937947794745e-10  -8.1389616194415073e-10  5.3530190444240666e-10  1.6550967732031718e-09  -7.3863147442410455e-09  1.5826835271727260e-08  -1.3632551407408006e-08  -5.5821167608847499e-08  3.8285165875251195e-07  -1.5631595275879281e-06  5.4689376112960334e-06  -1.8333366818077746e-05  6.3248817377602344e-05  -2.4077671327153781e-04  1.1035973296891226e-03  -6.9245452617846676e-03  7.6578827970715510e-02  0.0000000000000000e+00  -2.4196761470197351e-11  -3.7186289427490591e-11  -3.7803197512623231e-11  -2.9241871830079708e-11  -1.7342804328379719e-11  -7.7304472955357209e-12  -4.4302174716084850e-12  3.2971459042980874e-12  -3.6497246587870041e-12  -7.0846237139994752e-12  3.9770307595033212e-11  -9.2666583526006581e-11  1.2111961107930003e-10  -4.1080943231304201e-12  -4.3334394756791875e-10  1.2427881869433650e-09  -1.9088722557468159e-09  6.6874369456549157e-10  5.8289184047721241e-09  -2.0287849205473902e-08  3.2833926577692740e-08  2.2715472980686485e-08  -4.1595042111925923e-07  2.1207127266985401e-06  -8.6434612365958495e-06  3.3520758910336433e-05  -1.3660993584037491e-04  6.4566029248064511e-04  -4.0594850287004958e-03  4.4889103017013592e-02  0.0000000000000000e+00  -9.9105024578312973e-12  -1.5019180829932308e-11  -1.5465390487078832e-11  -1.2589049659346859e-11  -8.1458526964847546e-12  -5.1887694117279614e-12  -1.6426820701214887e-12  5.2378276691439807e-13  -7.2356497207991786e-12  1.5783461287171835e-11  -1.8425956022929737e-11  -8.8245396714811019e-12  9.4497406259298205e-11  -2.3046828336807247e-10  2.9400921735310030e-10  1.5801344149969525e-11  -1.0751817109567220e-09  2.8042274867173467e-09  -3.4578045223378933e-09  -2.0145742785820226e-09  2.1778082908522035e-08  -5.5891169544626566e-08  4.0593353992517985e-08  3.7637305946106842e-07  -2.7309756840350194e-06  1.3589845546974099e-05  -6.3609571259068268e-05  3.2493019927937888e-04  -2.1231055181891775e-03  2.4230019787609167e-02  0.0000000000000000e+00  -3.5744268757906497e-12  -5.3534924610095949e-12  -5.5925066988915268e-12  -4.6591524593555543e-12  -3.4922679416939322e-12  -2.3768089694940246e-12  -1.4840095442101180e-13  -3.1761770959073852e-12  2.8270016761184315e-12  1.5314587445084351e-12  -1.7351767916619047e-11  4.2533259250643656e-11  -5.3693904735632058e-11  -5.4969157757117763e-12  1.9678414082468512e-10  -4.8342111640980711e-10  5.5083093445311282e-10  3.0691564934389380e-10  -2.8411603352747601e-09  6.3721890766633554e-09  -5.5920349481722138e-09  -1.3189213262581638e-08  6.6845643912779437e-08  -1.1632061977183895e-07  -2.4913259818682154e-07  3.3675217359638169e-06  -2.1799626003497912e-05  1.3165791808869296e-04  -9.4656966366767103e-04  1.1685001826586211e-02  0.0000000000000000e+00  -1.0793181504830061e-12  -1.5982353839033446e-12  -1.6726243158298746e-12  -1.4291508877729092e-12  -1.2970470518483243e-12 