<?xml version="1.0"?>
<VTKFile type="UnstructuredGrid"  version="0.1"  >
<UnstructuredGrid>
<Piece  NumberOfPoints="961" NumberOfCells="1800">
<Points>
<DataArray  type="Float64"  NumberOfComponents="3"  format="ascii">-1 -1 0  -0.9333333333333333 -1 0  -0.8666666666666667 -1 0  -0.8 -1 0  -0.7333333333333334 -1 0  -0.6666666666666667 -1 0  -0.6 -1 0  -0.5333333333333333 -1 0  -0.4666666666666667 -1 0  -0.4 -1 0  -0.3333333333333334 -1 0  -0.2666666666666667 -1 0  -0.2 -1 0  -0.1333333333333333 -1 0  -0.06666666666666665 -1 0  0 -1 0  0.06666666666666665 -1 0  0.1333333333333333 -1 0  0.2 -1 0  0.2666666666666666 -1 0  0.3333333333333333 -1 0  0.3999999999999999 -1 0  0.4666666666666666 -1 0  0.5333333333333334 -1 0  0.6000000000000001 -1 0  0.6666666666666667 -1 0  0.7333333333333334 -1 0  0.8 -1 0  0.8666666666666667 -1 0  0.9333333333333333 -1 0  1 -1 0  -1 -0.9333333333333333 0  -0.9333333333333333 -0.9333333333333333 0  -0.8666666666666667 -0.9333333333333333 0  -0.8 -0.9333333333333333 0  -0.7333333333333334 -0.9333333333333333 0  -0.6666666666666667 -0.9333333333333333 0  -0.6 -0.9333333333333333 0  -0.5333333333333333 -0.9333333333333333 0  -0.4666666666666667 -0.9333333333333333 0  -0.4 -0.9333333333333333 0  -0.3333333333333334 -0.9333333333333333 0  -0.2666666666666667 -0.9333333333333333 0  -0.2 -0.9333333333333333 0  -0.1333333333333333 -0.9333333333333333 0  -0.06666666666666665 -0.9333333333333333 0  0 -0.9333333333333333 0  0.06666666666666665 -0.9333333333333333 0  0.1333333333333333 -0.9333333333333333 0  0.2 -0.9333333333333333 0  0.2666666666666666 -0.9333333333333333 0  0.3333333333333333 -0.9333333333333333 0  0.3999999999999999 -0.9333333333333333 0  0.4666666666666666 -0.9333333333333333 0  0.5333333333333334 -0.9333333333333333 0  0.6000000000000001 -0.9333333333333333 0  0.6666666666666667 -0.9333333333333333 0  0.7333333333333334 -0.9333333333333333 0  0.8 -0.9333333333333333 0  0.8666666666666667 -0.9333333333333333 0  0.9333333333333333 -0.9333333333333333 0  1 -0.9333333333333333 0  -1 -0.8666666666666667 0  -0.9333333333333333 -0.8666666666666667 0  -0.8666666666666667 -0.8666666666666667 0  -0.8 -0.8666666666666667 0  -0.7333333333333334 -0.8666666666666667 0  -0.6666666666666667 -0.8666666666666667 0  -0.6 -0.8666666666666667 0  -0.5333333333333333 -0.8666666666666667 0  -0.4666666666666667 -0.8666666666666667 0  -0.4 -0.8666666666666667 0  -0.3333333333333334 -0.8666666666666667 0  -0.2666666666666667 -0.8666666666666667 0  -0.2 -0.8666666666666667 0  -0.1333333333333333 -0.8666666666666667 0  -0.06666666666666665 -0.8666666666666667 0  0 -0.8666666666666667 0  0.06666666666666665 -0.8666666666666667 0  0.1333333333333333 -0.8666666666666667 0  0.2 -0.8666666666666667 0  0.2666666666666666 -0.8666666666666667 0  0.3333333333333333 -0.8666666666666667 0  0.3999999999999999 -0.8666666666666667 0  0.4666666666666666 -0.8666666666666667 0  0.5333333333333334 -0.8666666666666667 0  0.6000000000000001 -0.8666666666666667 0  0.6666666666666667 -0.8666666666666667 0  0.7333333333333334 -0.8666666666666667 0  0.8 -0.8666666666666667 0  0.8666666666666667 -0.8666666666666667 0  0.9333333333333333 -0.8666666666666667 0  1 -0.8666666666666667 0  -1 -0.8 0  -0.9333333333333333 -0.8 0  -0.8666666666666667 -0.8 0  -0.8 -0.8 0  -0.7333333333333334 -0.8 0  -0.6666666666666667 -0.8 0  -0.6 -0.8 0  -0.5333333333333333 -0.8 0  -0.4666666666666667 -0.8 0  -0.4 -0.8 0  -0.3333333333333334 -0.8 0  -0.2666666666666667 -0.8 0  -0.2 -0.8 0  -0.1333333333333333 -0.8 0  -0.06666666666666665 -0.8 0  0 -0.8 0  0.06666666666666665 -0.8 0  0.1333333333333333 -0.8 0  0.2 -0.8 0  0.2666666666666666 -0.8 0  0.3333333333333333 -0.8 0  0.3999999999999999 -0.8 0  0.4666666666666666 -0.8 0  0.5333333333333334 -0.8 0  0.6000000000000001 -0.8 0  0.6666666666666667 -0.8 0  0.7333333333333334 -0.8 0  0.8 -0.8 0  0.8666666666666667 -0.8 0  0.9333333333333333 -0.8 0  1 -0.8 0  -1 -0.7333333333333334 0  -0.9333333333333333 -0.7333333333333334 0  -0.8666666666666667 -0.7333333333333334 0  -0.8 -0.7333333333333334 0  -0.7333333333333334 -0.7333333333333334 0  -0.6666666666666667 -0.7333333333333334 0  -0.6 -0.7333333333333334 0  -0.5333333333333333 -0.7333333333333334 0  -0.4666666666666667 -0.7333333333333334 0  -0.4 -0.7333333333333334 0  -0.3333333333333334 -0.7333333333333334 0  -0.2666666666666667 -0.7333333333333334 0  -0.2 -0.7333333333333334 0  -0.1333333333333333 -0.7333333333333334 0  -0.06666666666666665 -0.7333333333333334 0  0 -0.7333333333333334 0  0.06666666666666665 -0.7333333333333334 0  0.1333333333333333 -0.7333333333333334 0  0.2 -0.7333333333333334 0  0.2666666666666666 -0.7333333333333334 0  0.3333333333333333 -0.7333333333333334 0  0.3999999999999999 -0.7333333333333334 0  0.4666666666666666 -0.7333333333333334 0  0.5333333333333334 -0.7333333333333334 0  0.6000000000000001 -0.7333333333333334 0  0.6666666666666667 -0.7333333333333334 0  0.7333333333333334 -0.7333333333333334 0  0.8 -0.7333333333333334 0  0.8666666666666667 -0.7333333333333334 0  0.9333333333333333 -0.7333333333333334 0  1 -0.7333333333333334 0  -1 -0.6666666666666667 0  -0.9333333333333333 -0.6666666666666667 0  -0.8666666666666667 -0.6666666666666667 0  -0.8 -0.6666666666666667 0  -0.7333333333333334 -0.6666666666666667 0  -0.6666666666666667 -0.6666666666666667 0  -0.6 -0.6666666666666667 0  -0.5333333333333333 -0.6666666666666667 0  -0.4666666666666667 -0.6666666666666667 0  -0.4 -0.6666666666666667 0  -0.3333333333333334 -0.6666666666666667 0  -0.2666666666666667 -0.6666666666666667 0  -0.2 -0.6666666666666667 0  -0.1333333333333333 -0.6666666666666667 0  -0.06666666666666665 -0.6666666666666667 0  0 -0.6666666666666667 0  0.06666666666666665 -0.6666666666666667 0  0.1333333333333333 -0.6666666666666667 0  0.2 -0.6666666666666667 0  0.2666666666666666 -0.6666666666666667 0  0.3333333333333333 -0.6666666666666667 0  0.3999999999999999 -0.6666666666666667 0  0.4666666666666666 -0.6666666666666667 0  0.5333333333333334 -0.6666666666666667 0  0.6000000000000001 -0.6666666666666667 0  0.6666666666666667 -0.6666666666666667 0  0.7333333333333334 -0.6666666666666667 0  0.8 -0.6666666666666667 0  0.8666666666666667 -0.6666666666666667 0  0.9333333333333333 -0.6666666666666667 0  1 -0.6666666666666667 0  -1 -0.6 0  -0.9333333333333333 -0.6 0  -0.8666666666666667 -0.6 0  -0.8 -0.6 0  -0.7333333333333334 -0.6 0  -0.6666666666666667 -0.6 0  -0.6 -0.6 0  -0.5333333333333333 -0.6 0  -0.4666666666666667 -0.6 0  -0.4 -0.6 0  -0.3333333333333334 -0.6 0  -0.2666666666666667 -0.6 0  -0.2 -0.6 0  -0.1333333333333333 -0.6 0  -0.06666666666666665 -0.6 0  0 -0.6 0  0.06666666666666665 -0.6 0  0.1333333333333333 -0.6 0  0.2 -0.6 0  0.2666666666666666 -0.6 0  0.3333333333333333 -0.6 0  0.3999999999999999 -0.6 0  0.4666666666666666 -0.6 0  0.5333333333333334 -0.6 0  0.6000000000000001 -0.6 0  0.6666666666666667 -0.6 0  0.7333333333333334 -0.6 0  0.8 -0.6 0  0.8666666666666667 -0.6 0  0.9333333333333333 -0.6 0  1 -0.6 0  -1 -0.5333333333333333 0  -0.9333333333333333 -0.5333333333333333 0  -0.8666666666666667 -0.5333333333333333 0  -0.8 -0.5333333333333333 0  -0.7333333333333334 -0.5333333333333333 0  -0.6666666666666667 -0.5333333333333333 0  -0.6 -0.5333333333333333 0  -0.5333333333333333 -0.5333333333333333 0  -0.4666666666666667 -0.5333333333333333 0  -0.4 -0.5333333333333333 0  -0.3333333333333334 -0.5333333333333333 0  -0.2666666666666667 -0.5333333333333333 0  -0.2 -0.5333333333333333 0  -0.1333333333333333 -0.5333333333333333 0  -0.06666666666666665 -0.5333333333333333 0  0 -0.5333333333333333 0  0.06666666666666665 -0.5333333333333333 0  0.1333333333333333 -0.5333333333333333 0  0.2 -0.5333333333333333 0  0.2666666666666666 -0.5333333333333333 0  0.3333333333333333 -0.5333333333333333 0  0.3999999999999999 -0.5333333333333333 0  0.4666666666666666 -0.5333333333333333 0  0.5333333333333334 -0.5333333333333333 0  0.6000000000000001 -0.5333333333333333 0  0.6666666666666667 -0.5333333333333333 0  0.7333333333333334 -0.5333333333333333 0  0.8 -0.5333333333333333 0  0.8666666666666667 -0.5333333333333333 0  0.9333333333333333 -0.5333333333333333 0  1 -0.5333333333333333 0  -1 -0.4666666666666667 0  -0.9333333333333333 -0.4666666666666667 0  -0.8666666666666667 -0.4666666666666667 0  -0.8 -0.4666666666666667 0  -0.7333333333333334 -0.4666666666666667 0  -0.6666666666666667 -0.4666666666666667 0  -0.6 -0.4666666666666667 0  -0.5333333333333333 -0.4666666666666667 0  -0.4666666666666667 -0.4666666666666667 0  -0.4 -0.4666666666666667 0  -0.3333333333333334 -0.4666666666666667 0  -0.2666666666666667 -0.4666666666666667 0  -0.2 -0.4666666666666667 0  -0.1333333333333333 -0.4666666666666667 0  -0.06666666666666665 -0.4666666666666667 0  0 -0.4666666666666667 0  0.06666666666666665 -0.4666666666666667 0  0.1333333333333333 -0.4666666666666667 0  0.2 -0.4666666666666667 0  0.2666666666666666 -0.4666666666666667 0  0.3333333333333333 -0.4666666666666667 0  0.3999999999999999 -0.4666666666666667 0  0.4666666666666666 -0.4666666666666667 0  0.5333333333333334 -0.4666666666666667 0  0.6000000000000001 -0.4666666666666667 0  0.6666666666666667 -0.4666666666666667 0  0.7333333333333334 -0.4666666666666667 0  0.8 -0.4666666666666667 0  0.8666666666666667 -0.4666666666666667 0  0.9333333333333333 -0.4666666666666667 0  1 -0.4666666666666667 0  -1 -0.4 0  -0.9333333333333333 -0.4 0  -0.8666666666666667 -0.4 0  -0.8 -0.4 0  -0.7333333333333334 -0.4 0  -0.6666666666666667 -0.4 0  -0.6 -0.4 0  -0.5333333333333333 -0.4 0  -0.4666666666666667 -0.4 0  -0.4 -0.4 0  -0.3333333333333334 -0.4 0  -0.2666666666666667 -0.4 0  -0.2 -0.4 0  -0.1333333333333333 -0.4 0  -0.06666666666666665 -0.4 0  0 -0.4 0  0.06666666666666665 -0.4 0  0.1333333333333333 -0.4 0  0.2 -0.4 0  0.2666666666666666 -0.4 0  0.3333333333333333 -0.4 0  0.3999999999999999 -0.4 0  0.4666666666666666 -0.4 0  0.5333333333333334 -0.4 0  0.6000000000000001 -0.4 0  0.6666666666666667 -0.4 0  0.7333333333333334 -0.4 0 
[...]
<PointData  Scalars="f_24"> 
<DataArray  type="Float64"  Name="f_24"  format="ascii">0.0000000000000000e+00  0.0000000000000000e+00  0.0000000000000000e+00  0.0000000000000000e+00  0.0000000000000000e+00  0.0000000000000000e+00  0.0000000000000000e+00  0.0000000000000000e+00  0.0000000000000000e+00  0.0000000000000000e+00  0.0000000000000000e+00  0.0000000000000000e+00  0.0000000000000000e+00  0.0000000000000000e+00  0.0000000000000000e+00  0.0000000000000000e+00  0.0000000000000000e+00  0.0000000000000000e+00  0.0000000000000000e+00  0.0000000000000000e+00  0.0000000000000000e+00  0.0000000000000000e+00  0.0000000000000000e+00  0.0000000000000000e+00  0.0000000000000000e+00  0.0000000000000000e+00  0.0000000000000000e+00  0.0000000000000000e+00  0.0000000000000000e+00  0.0000000000000000e+00  1.4333346164744452e+01  0.0000000000000000e+00  1.5613417569269430e-04  1.4289773256447869e-03  5.0143259636301011e-03  1.2029244729664330e-02  2.3357108994545281e-02  3.9681454353056797e-02  6.1547401450783794e-02  8.9425210007476788e-02  1.2377105368309126e-01  1.6508471551089696e-01  2.1396607653149238e-01  2.7117349702555044e-01  3.3768839218096824e-01  4.1479183177101875e-01  5.0416109968442813e-01  6.0799725081434641e-01  7.2919942106829994e-01  8.7160894841859515e-01  1.0403578156894557e+00  1.2423741713304459e+00  1.4871274344022463e+00  1.7877457506462444e+00  2.1627272987517729e+00  2.6386348255186287e+00  3.2544972234664478e+00  4.0693898290745505e+00  5.1764759638735836e+00  6.7314002080168125e+00  9.0203964944571720e+00  1.2515683220674839e+01  0.0000000000000000e+00  3.0900938813828454e-04  2.3461254044538850e-03  7.6592292413692675e-03  1.7160036792454793e-02  3.0907041495748477e-02  4.8330477721741129e-02  6.8498860688401234e-02  9.0349751378681009e-02  1.1285593773912266e-01  1.3512822148761536e-01  1.5646842240380932e-01  1.7638951217278473e-01  1.9461920374274508e-01  2.1110134592618707e-01  2.2600806279592137e-01  2.3977614443480197e-01  2.5318507442943855e-01  2.6750323207019505e-01  2.8474667499285333e-01  3.0812782500922353e-01  3.4283109658618593e-01  3.9736104191446253e-01  4.8590991619094892e-01  6.3257523186607456e-01  8.7904880065713220e-01  1.2991350669703638e+00  2.0278506549933799e+00  3.3266778494401512e+00  5.7509639529645504e+00  1.0876638543502674e+01  0.0000000000000000e+00  4.0422136832722453e-04  2.6460947821988099e-03  7.8904206531070272e-03  1.6031340540924255e-02  2.5796579575002098e-02  3.5454835434664808e-02  4.3405481207228168e-02  4.8519736093613597e-02  5.0241385104720010e-02  4.8529480714344660e-02  4.3726459036552860e-02  3.6412422952619053e-02  2.7279836746849539e-02  1.7042077715284886e-02  6.3769447736697245e-03  -4.0988069082168411e-03  -1.3827221071422041e-02  -2.2276795402398328e-02  -2.8864863174607101e-02  -3.2792783875506964e-02  -3.2694750864642241e-02  -2.5876684493760710e-02  -6.6546769706724998e-03  3.7273880364880330e-02  1.3271415734341896e-01  3.3819984976675616e-01  7.8249804680035695e-01  1.7552670577321745e+00  3.9635025810155851e+00  9.4041084186888355e+00  0.0000000000000000e+00  4.3626344795423327e-04  2.4854056515467926e-03  6.6722309046988101e-03  1.2007537030421452e-02  1.6684382312223876e-02  1.9195868696568835e-02  1.8904763385932673e-02  1.6060724964015616e-02  1.1495072044215314e-02  6.2482358022841536e-03  1.2778287007915448e-03  -2.7052201726850320e-03  -5.2879034495762738e-03  -6.3327831533220311e-03  -5.9202578288434999e-03  -4.2830302503378591e-03  -1.7487656255014273e-03  1.3018895742123629e-03  4.4607981667734034e-03  7.3068632076482938e-03  9.4331242956465552e-03  1.0570932155643354e-02  1.1092539440346955e-02  1.3730428358894913e-02  2.8876851716307900e-02  8.9545991623219037e-02  2.9176290022675394e-01  9.0431847711617863e-01  2.6803104496789878e+00  8.0864138234324212e+00  0.0000000000000000e+00  4.1768591583628978e-04  2.0801094786754930e-03  4.9780016980394744e-03  7.7831349527620174e-03  9.0216352131303051e-03  8.1584121516725099e-03  5.6919775884171969e-03  2.6491762947879849e-03  6.4143712621318653e-06  -1.6503313985418127e-03  -2.1904348246156225e-03  -1.8269798963763877e-03  -9.4683434288620600e-04  3.8858983026861904e-05  7.9185809914881209e-04  1.0914501664743980e-03  8.4036941304322093e-04  4.7658915852187854e-05  -1.2003888975014975e-03  -2.7779372153602976e-03  -4.5740193605820403e-03  -6.5830897319660315e-03  -9.0286098257903839e-03  -1.2245326850017802e-02  -1.4911872929377146e-02  -4.9862294492799821e-03  7.4326256999443785e-02  4.3650370265467009e-01  1.8230357765413285e+00  6.9123004266707433e+00  0.0000000000000000e+00  3.6723014372792915e-04  1.6053015651825142e-03  3.4041295850947002e-03  4.5479884133884357e-03  4.2247813336592230e-03  2.6991714491797674e-03  8.6925466876059667e-04  -4.5808331540894877e-04  -9.6503422209498349e-04  -7.9550914079969581e-04  -3.1324694650145300e-04  1.3692016117122912e-04  3.5857108437530396e-04  3.2238896536339274e-04  1.1906459033622127e-04  -1.0699607025737602e-04  -2.1406563069131622e-04  -9.8494331956819708e-05  2.9067273485388500e-04  9.5277857039509297e-04  1.8444801892919518e-03  2.8741822927013821e-03  3.8126203937516000e-03  3.9433474886471434e-03  1.6833236983649987e-03  -2.9125867827744433e-03  1.3741236171074877e-02  2.0008895239931138e-01  1.2189375086759637e+00  5.8709385890793282e+00  0.0000000000000000e+00  3.0247223579206223e-04  1.1661277093641873e-03  2.1848290507935578e-03  2.4572478859167836e-03  1.7318839564830148e-03  5.9333367215626590e-04  -2.4491317764779185e-04  -4.9547590578870998e-04  -3.1787483336325113e-04  -3.2013490099865436e-05  1.3622718253416914e-04  1.3649471937939283e-04  4.0168132436492409e-05  -5.2887086771496757e-05  -8.0940106103606567e-05  -4.1972052081039037e-05  1.8280836598847819e-05  3.2488695571944563e-05  -6.2626401110543482e-05  -3.0792349787601173e-04  -7.1002795970097614e-04  -1.2257320487965159e-03  -1.7509341357862856e-03  -2.2184084237283643e-03  -3.4462023293121377e-03  -8.2801275707933726e-03  -1.3626534817428811e-02  6.7711922791941423e-02  7.9357636791728536e-01  4.9519233630719146e+00  0.0000000000000000e+00  2.3636523076938154e-04  8.0805982505224134e-04  1.3372073892266871e-03  1.2481285617273255e-03  6.0953811167780347e-04  -2.0914406619091632e-05  -2.6849152969583780e-04  -1.8189035330731516e-04  -1.0421811104957253e-05  7.2361644970333550e-05  5.1176133927615016e-05  -3.5118929514435900e-06  -3.0590566525092182e-05  -1.8426227782289303e-05  8.5164064094846394e-06  2.2051409113595241e-05  1.3724045727056848e-05  3.8075934772896253e-07  1.5995819734271156e-05  9.7605922011981139e-05  2.7146263055465204e-04  5.4165696045425688e-04  9.1619703535675745e-04  1.4569130364611295e-03  2.1912860121496248e-03  7.9126781267642692e-04  -8.0662877513914752e-03  1.3443185334645627e-02  5.0565237246920525e-01  4.1452744928004659e+00  0.0000000000000000e+00  1.7668279709878400e-04  5.3882414511422167e-04  7.8901385052713958e-04  6.0239426526785523e-04  1.6689781444861711e-04  -1.1955724167616517e-04  -1.3461932946990290e-04  -2.9170430323816823e-05  3.5531921974755211e-05  2.7509051550800257e-05  -3.0047606764649140e-06  -1.3979482292714857e-05  -4.4888991708972024e-06  5.9959808096531310e-06  5.4923017994989737e-06  -2.3149278516103088e-06  -7.3452733291617349e-06  -5.9220236759026134e-06  -7.1910020362330607e-06  -3.1065689921156421e-05  -1.0133900947999036e-04  -2.3702197030077397e-04  -4.6760026062887529e-04  -7.3921290316935641e-04  -8.5125255799487843e-04  -9.5081821692579718e-04  -8.1024797232142499e-03  -1.4374676339710441e-02  2.9929952679076033e-01  3.4414364141551421e+00  0.0000000000000000e+00  1.2697430794435290e-04  3.4761917121473691e-04  4.5203930502747539e-04  2.7778538621940104e-04  1.7528732681838847e-05  -9.0303308065688498e-05  -4.8990678744974542e-05  9.8785417465644695e-06  1.9380501161694440e-05  1.9746746238852531e-06  -6.9371184571263489e-06  -2.4476640389970697e-06  2.7120665491311863e-06  1.8622321842536754e-06  -1.2361845346768938e-06  -1.4461209911223359e-06  1.1547030749001661e-06  3.1674063130097077e-06  4.0570144915162933e-06  1.0387247034926646e-05  3.6484019934544119e-05  9.7971065504993059e-05  2.1867996505225436e-04  3.3459621668708645e-04  6.5005769791121244e-04  1.3640788082165760e-03  -9.9176335967087435e-04  -1.8407969499491954e-02  1.6863931276216571e-01  2.8312782547643374e+00  0.0000000000000000e+00  8.7951661316517293e-05  2.1754431672768522e-04  2.5241613896984615e-04  1.2230290495085164e-04  -2.0855263871573862e-05  -5.1533039228102391e-05  -1.3092494313478182e-05  1.1185851620132450e-05  6.0090300382671477e-06  -2.7350007006088380e-06  -2.3477431469845204e-06  9.0678085164858714e-07  1.0283487354654753e-06  -4.3626840613756711e-07  -5.5864291084174042e-07  2.9683982583202379e-07  3.0195013855133724e-07  -7.5386523746688117e-07  -1.8446995465226445e-06  -3.7210058174167053e-06  -1.2912103997545423e-05  -3.6380414268957816e-05  -9.6451897888923560e-05  -1.6688457603688921e-04  -4.3784183857361561e-04  -2.7256514603940682e-05  -8.0646617010777079e-04  -1.7795505430409451e-02  7.6012440822429236e-02  2.3060938339946437e+00  0.0000000000000000e+00  5.8728055214177764e-05  1.3204867843249538e-04  1.3739361945598605e-04  5.0808104448194890e-05  -2.3531419620062427e-05  -2.6448018220871574e-05  -1.6521718075676516e-06  6.4056383381562531e-06  9.9798018042023984e-07  -1.7968917236298546e-06  -2.5083052216880368e-07  6.3712991984621854e-07  1.0809512250536595e-08  -2.7780285357753797e-07  6.0769623588018547e-08  1.4658954095605373e-07  -7.9257806258863332e-08  1.1481879728143328e-08  5.6686632103147886e-07  1.2704862990032680e-06  4.8162688897348545e-06  1.0812345115125345e-05  4.4854224204119444e-05  7.3317791875990957e-05  1.8051555799217920e-04  2.2589593818028166e-04  1.7736507601538532e-03  -1.2243000416356384e-02  2.3551429144604247e-02  1.8576016629508809e+00  0.0000000000000000e+00  3.7710025124056965e-05  7.7491345101696616e-05  7.2555283359679036e-05  1.9136809707276561e-05  -1.7786245439550562e-05  -1.3196563482822209e-05  8.7895332826022321e-07  3.0511445882186995e-06  -1.4939153029283664e-07  -7.4982126235684063e-07  1.3489856646161023e-07  1.9707497272636491e-07  -9.6433929119379800e-08  -4.1699187286460235e-08  5.9205427236138790e-08  -9.4337312751705252e-09  -3.3671444683539124e-08  1.7561184373523117e-08  -1.1822675762069937e-07  -2.7324195436142422e-07  -2.1459199515909843e-06  -1.2452622373022142e-06  -2.4098401605366423e-05  -1.1010653237007668e-05  -1.3389088431922525e-04  -1.6036458313102879e-04  7.4140339644530222e-04  -7.3155258004169599e-03  -1.1406381975107578e-02  1.4779449444760757e+00  0.0000000000000000e+00  2.3148675561939746e-05  4.3630209058160812e-05  3.6704364411144462e-05  5.6396452227786428e-06  -1.1942970993416177e-05  -6.7720015344711413e-06  9.1846745475233442e-07  1.4065541840266737e-06  -2.0609938984258749e-07  -2.7628307574770681e-07  9.5367843717167706e-08  4.2819772673147501e-08  -4.0439988209790956e-08  4.9804865968629078e-09  1.1444692651857460e-08  -1.0080917426195413e-08  3.3647287990992866e-09  1.3837810470495076e-09  4.8330348220181399e-08  -1.1194709588251271e-07  1.3243411159286739e-06  -1.8643809332863372e-06  1.4191902214242731e-05  -1.0343012837489876e-05  1.0494173436352843e-04  -1.5009675227714223e-04  1.1070487582995124e-03  -2.9307713158383099e-03  -2.6720711912463595e-02  1.1596915731514721e+00  0.0000000000000000e+00  1.3432041298429921e-05  2.3214793623765773e-05  1.7282028585720920e-05  1.6712296316145380e-07  -7.7532926058478225e-06  -3.7345282506704124e-06  5.2934614668809278e-07  6.8724839808919784e-07  -9.7292366940145876e-08  -1.0935375157736629e-07  3.6395146936988478e-08  1.0324762268483840e-08  -1.0666440053160232e-08  3.1130210502045547e-09  3.7703613590276509e-10  -7.8944211854469260e-10  -8.9625749081562340e-10  1.0552666568963720e-08  -6.8088018797590304e-08  2.8740832649345510e-07  -1.2389229782550738e-06  3.0807279632446649e-06  -1.0230264849802141e-05  1.3077969074419770e-05  -4.2120970082635013e-05  -3.8245783592419830e-05  1.1620398709365537e-04  1.9135681582451160e-04  -3.4566987219899585e-02  8.9583413529652822e-01  0.0000000000000000e+00  7.2084478692644151e-06  1.1316618029935261e-05  7.0409959148627795e-06  -1.8632568099724463e-06  -5.0821881827799369e-06  -2.2700289960224426e-06  2.0840301241988501e-07  3.6773863989140029e-07  -1.8251222128329648e-08  -5.0224923256897913e-08  8.1455944702162209e-09  4.5212343476258773e-09  -2.1274845839199286e-09  7.9170033545610874e-10  -1.5081516262240909e-09  4.6670830154594735e-09  -1.2984468176608938e-08  2.7399127442199357e-08  -2.6710214205023562e-08  -8.7123159832808498e-08  6.3815631314940180e-07  -2.0836460958986701e-06  6.2114219059454917e-06  -1.1247937965899963e-05  3.0211725039839543e-05  -2.2853381537824951e-05  -1.9364358482370403e-06  1.9669154633224530e-03  -3.4119114546226577e-02  6.7978990896891711e-01  0.0000000000000000e+00  3.4123827866818456e-06  4.6841033862927202e-06  1.8715939545193209e-06  -2.4517053084320579e-06  -3.4546928268826077e-06  -1.5265864493285336e-06  7.4688297087318931e-09  2.0747668872229428e-07  2.0920106721332317e-08  -2.3188278401491759e-08  -2.0001068633782789e-09  1.9343519164959168e-09  -6.8283260635782577e-11  6.7934694249249345e-10  -3.1101833673111179e-09  1.0206058562750242e-08  -2.9841059777829639e-08  8.6024161058998100e-08  -2.5292583722047666e-07  7.3287850266121801e-07  -2.0002905690883533e-06  4.9667223521962821e-06  -1.1534540440291823e-05  2.4209454305157406e-05  -5.4667323311066304e-05  1.2299168382965599e-04  -4.7748511025943210e-04  2.9128204232727454e-03  -3.1198051718663040e-02  5.0540086396452633e-01  0.0000000000000000e+00  1.2413895381861408e-06  1.2216787611604099e-06  -5.3217238319585598e-07  -2.4447248652267295e-06  -2.4681572001962788e-06  -1.1234999316085663e-06  -1.0983710540315035e-07  1.1138378974484296e-07  3.4898565789334490e-08  -6.5599281830973342e-09  -3.9413830600272770e-09  -1.1367276917374264e-10  3.7569267944556857e-10  2.9016219141832384e-10  -2.4449472451344321e-09  9.5811743008253054e-09  -2.7842351576369361e-08  6.4417295589037563e-08  -1.1762335916917534e-07  1.6192269288896469e-07  -1.6145571742394798e-07  2.2238623437705253e-07  -1.0912666192803336e-06  6.1049454077841296e-06  -2.5884836966906793e-05  1.1103714593040910e-04  -4.9256041889257586e-04  2.9894706569823580e-03  -2.5773742602897977e-02  3.6693366181745801e-01  0.0000000000000000e+00  1.1337780293832954e-07  -3.9445188797355781e-07  -1.4579610936580301e-06  -2.1926078417071903e-06  -1.8500656637624344e-06  -8.8894565328888121e-07  -1.7928881192032000e-07  4.3259255263424953e-08  3.3544098618368460e-08  4.3594233663855046e-09  -2.0134666365849807e-09  -9.4466020898449955e-10  2.4246890913715229e-10  -6.3899127651653771e-10  4.1628878808410614e-10  2.6109473205045963e-09  -1.6992569159428340e-08  7.0776413453822307e-08  -2.4260803086731603e-07  7.2009324539736481e-07  -1.8970618336344369e-06  4.5555154256845350e-06  -1.0349595223878373e-05  2.3367662349843268e-05  -5.6529385557163934e-05  1.5716454808464364e-04  -5.6115660572390522e-04  2.7329110494126179e-03  -2.0264373747015778e-02  2.5907965580002912e-01  0.0000000000000000e+00  -3.7961965815088900e-07  -9.8457686931429212e-07  -1.6244259158572189e-06  -1.8418263867695480e-06  -1.4311218486880459e-06  -7.3845996338388299e-07  -2.2197805164304211e-07  -1.1115278134125267e-08  2.1563610036137435e-08  9.4800437221225536e-09  1.2925596180839016e-09  -2.0345378091882609e-10  -1.2431478038168187e-10  -6.7464200653287858e-10  1.5789249197080387e-09  -2.9227520315539492e-09  4.7175836924581999e-09  -9.8331572326350825e-09  2.5665957060884195e-08  -5.2201378524887789e-08  1.8810254076619023e-08  4.1368768823184501e-07  -2.3973489766110899e-06  9.5012168576668075e-06  -3.3173643001665912e-05  1.1601120302903186e-04  -4.4846899146279597e-04  2.1692390241071493e-03  -1.4821487088204615e-02  1.7695489092277109e-01  0.0000000000000000e+00  -5.1358069594981151e-07  -1.0460653260033229e-06  -1.4330853046213124e-06  -1.4601855559577491e-06  -1.1125734006852001e-06  -6.2434962824523216e-07  -2.4580439947387323e-07  -5.6424748695393201e-08  1.6591876816680725e-09  7.6171031492371859e-09  3.4731985628334734e-09  1.1941248396038310e-09  -6.7479392657207954e-11  2.8402785444041874e-10  4.3188542787486021e-10  -1.7170649338526252e-09  4.9193583146116305e-10  1.7349867244386893e-08  -9.0943419869524802e-08  3.0777518702088659e-07  -8.4614107437731767e-07  2.0874350519070722e-06  -4.9753543769685969e-06  1.2218091461359344e-05  -3.2587679869773765e-05  9.8344228124278723e-05  -3.5193158941539983e-04  1.5940086493910137e-03  -1.0236693868471971e-02  1.1610010393443013e-01  0.0000000000000000e+00  -4.6764783869838600e-07  -8.7188400135208561e-07  -1.1074333115069693e-06  -1.0871050828362483e-06  -8.4326915765271646e-07  -5.1801473058186909e-07  -2.4969360218960589e-07  -9.1094832210598763e-08  -2.2488716573258815e-08  -1.3771538600781452e-09  1.9449019663677751e-09  1.4666071397685065e-09  4.5096145764365960e-10  7.9308638325555314e-10  -7.1333079596341186e-10  -1.7839150982755936e-10  7.4385824623512968e-09  -3.1862501381242821e-08  9.1698000756645365e-08  -2.0154436371217253e-07  3.3506868896526260e-07  -3.2538873403981530e-07  -4.0254779262867521e-07  3.6533675250019485e-06  -1.5364876550301179e-05  5.7432315027450410e-05  -2.2501297374104273e-04  1.0414689419301494e-03  -6.5432892301089890e-03  7.2480723321967061e-02  0.0000000000000000e+00  -3.5192472703369099e-07  -6.2700125317222179e-07  -7.6908465523797115e-07  -7.5095567701821252e-07  -6.0432899490761181e-07  -4.0605946671870353e-07  -2.2972408776355817e-07  -1.0946089103850268e-07  -4.4282321289111660e-08  -1.4647856731662218e-08  -4.1800952533958748e-09  -6.9287165728753338e-10  -6.1298949808519410e-11  1.2330818287851230e-10  -4.7781017854259379e-10  2.4179987464300553e-09  -8.5382381548307554e-09  2.4408910909242896e-08  -5.8676859281230061e-08  1.2195102593674492e-07  -2.3198139025199207e-07  4.4755497869948215e-07  -1.0064266319732679e-06  2.8049446410866045e-06  -9.1377902763181700e-06  3.2798346718944869e-05  -1.3043831927708136e-04  6.1217106272431631e-04  -3.8406962227884919e-03  4.2486869310557285e-02  0.0000000000000000e+00  -2.2868522671961191e-07  -3.9706579094900155e-07  -4.7949792486244790e-07  -4.7246914350292805e-07  -3.9686963889071342e-07  -2.8956163253604797e-07  -1.8629214845791320e-07  -1.0650598756851511e-07  -5.5507778967500638e-08  -2.5991399271441775e-08  -1.2141273974410708e-08  -4.7927208815425696e-09  -2.4986829476590007e-09  -9.5385055869200968e-10  -2.9745087674562671e-10  -1.7467677415216157e-09  5.6852573094848353e-09  -1.8476716192978619e-08  4.6789565462833759e-08  -1.0107750525911772e-07  1.8835281719246324e-07  -3.0147891014113135e-07  3.6699799417790230e-07  -3.8450912351087212e-08  -2.1463074368639541e-06  1.2403093953303845e-05  -5.9736217709019620e-05  3.0703316291416340e-04  -2.0074897542523150e-03  2.2933353863591101e-02  0.0000000000000000e+00  -1.2814940538977365e-07  -2.1924943916832822e-07  -2.6333971388992452e-07  -2.6327902275000560e-07  -2.3041964856711782e-07  -1.8042257198513440e-07  -1.2851456365747771e-07  -8.3862020430341316e-08  -5.1475774455449726e-08  -2.9091204203769093e-08  -1.6753229165468305e-08  -8.1641642599483951e-09  -5.2701881526185393e-09  -1.9947622850715387e-09  -1.9605756451660005e-09  1.0329430061046079e-09  -6.8475580229121486e-09  1.7668316564701138e-08  -3.9858677716545556e-08  7.1729243260289494e-08  -1.0631767722236586e-07  1.2373247557583646e-07  -1.0066999713422016e-07  6.8034145789323251e-08  -4.1223785513657622e-07  3.3470443190321032e-06  -2.0763205615467548e-05  1.2468637066776524e-04  -8.9533961770715397e-04  1.1059680682673177e-02  0.0000000000000000e+00  -6.0041457239856098e-08  -1.0185163530865027e-07  -1.2236179886270743e-07  -1.2425403260433043e-07  -1.1265177240619272e-07  -9.3385321406772219e-08  -7.1922118224108326e-08  -5.1744523354032112e-08  -3.5602025847