<?xml version="1.0"?>
<VTKFile type="UnstructuredGrid"  version="0.1"  >
<UnstructuredGrid>
<Piece  NumberOfPoints="961" NumberOfCells="1800">
<Points>
<DataArray  type="Float64"  NumberOfComponents="3"  format="ascii">-1 -1 0  -0.9333333333333333 -1 0  -0.8666666666666667 -1 0  -0.8 -1 0  -0.7333333333333334 -1 0  -0.6666666666666667 -1 0  -0.6 -1 0  -0.5333333333333333 -1 0  -0.4666666666666667 -1 0  -0.4 -1 0  -0.3333333333333334 -1 0  -0.2666666666666667 -1 0  -0.2 -1 0  -0.1333333333333333 -1 0  -0.06666666666666665 -1 0  0 -1 0  0.06666666666666665 -1 0  0.1333333333333333 -1 0  0.2 -1 0  0.2666666666666666 -1 0  0.3333333333333333 -1 0  0.3999999999999999 -1 0  0.4666666666666666 -1 0  0.5333333333333334 -1 0  0.6000000000000001 -1 0  0.6666666666666667 -1 0  0.7333333333333334 -1 0  0.8 -1 0  0.8666666666666667 -1 0  0.9333333333333333 -1 0  1 -1 0  -1 -0.9333333333333333 0  -0.9333333333333333 -0.9333333333333333 0  -0.8666666666666667 -0.9333333333333333 0  -0.8 -0.9333333333333333 0  -0.7333333333333334 -0.9333333333333333 0  -0.6666666666666667 -0.9333333333333333 0  -0.6 -0.9333333333333333 0  -0.5333333333333333 -0.9333333333333333 0  -0.4666666666666667 -0.9333333333333333 0  -0.4 -0.9333333333333333 0  -0.3333333333333334 -0.9333333333333333 0  -0.2666666666666667 -0.9333333333333333 0  -0.2 -0.9333333333333333 0  -0.1333333333333333 -0.9333333333333333 0  -0.06666666666666665 -0.9333333333333333 0  0 -0.9333333333333333 0  0.06666666666666665 -0.9333333333333333 0  0.1333333333333333 -0.9333333333333333 0  0.2 -0.9333333333333333 0  0.2666666666666666 -0.9333333333333333 0  0.3333333333333333 -0.9333333333333333 0  0.3999999999999999 -0.9333333333333333 0  0.4666666666666666 -0.9333333333333333 0  0.5333333333333334 -0.9333333333333333 0  0.6000000000000001 -0.9333333333333333 0  0.6666666666666667 -0.9333333333333333 0  0.7333333333333334 -0.9333333333333333 0  0.8 -0.9333333333333333 0  0.8666666666666667 -0.9333333333333333 0  0.9333333333333333 -0.9333333333333333 0  1 -0.9333333333333333 0  -1 -0.8666666666666667 0  -0.9333333333333333 -0.8666666666666667 0  -0.8666666666666667 -0.8666666666666667 0  -0.8 -0.8666666666666667 0  -0.7333333333333334 -0.8666666666666667 0  -0.6666666666666667 -0.8666666666666667 0  -0.6 -0.8666666666666667 0  -0.5333333333333333 -0.8666666666666667 0  -0.4666666666666667 -0.8666666666666667 0  -0.4 -0.8666666666666667 0  -0.3333333333333334 -0.8666666666666667 0  -0.2666666666666667 -0.8666666666666667 0  -0.2 -0.8666666666666667 0  -0.1333333333333333 -0.8666666666666667 0  -0.06666666666666665 -0.8666666666666667 0  0 -0.8666666666666667 0  0.06666666666666665 -0.8666666666666667 0  0.1333333333333333 -0.8666666666666667 0  0.2 -0.8666666666666667 0  0.2666666666666666 -0.8666666666666667 0  0.3333333333333333 -0.8666666666666667 0  0.3999999999999999 -0.8666666666666667 0  0.4666666666666666 -0.8666666666666667 0  0.5333333333333334 -0.8666666666666667 0  0.6000000000000001 -0.8666666666666667 0  0.6666666666666667 -0.8666666666666667 0  0.7333333333333334 -0.8666666666666667 0  0.8 -0.8666666666666667 0  0.8666666666666667 -0.8666666666666667 0  0.9333333333333333 -0.8666666666666667 0  1 -0.8666666666666667 0  -1 -0.8 0  -0.9333333333333333 -0.8 0  -0.8666666666666667 -0.8 0  -0.8 -0.8 0  -0.7333333333333334 -0.8 0  -0.6666666666666667 -0.8 0  -0.6 -0.8 0  -0.5333333333333333 -0.8 0  -0.4666666666666667 -0.8 0  -0.4 -0.8 0  -0.3333333333333334 -0.8 0  -0.2666666666666667 -0.8 0  -0.2 -0.8 0  -0.1333333333333333 -0.8 0  -0.06666666666666665 -0.8 0  0 -0.8 0  0.06666666666666665 -0.8 0  0.1333333333333333 -0.8 0  0.2 -0.8 0  0.2666666666666666 -0.8 0  0.3333333333333333 -0.8 0  0.3999999999999999 -0.8 0  0.4666666666666666 -0.8 0  0.5333333333333334 -0.8 0  0.6000000000000001 -0.8 0  0.6666666666666667 -0.8 0  0.7333333333333334 -0.8 0  0.8 -0.8 0  0.8666666666666667 -0.8 0  0.9333333333333333 -0.8 0  1 -0.8 0  -1 -0.7333333333333334 0  -0.9333333333333333 -0.7333333333333334 0  -0.8666666666666667 -0.7333333333333334 0  -0.8 -0.7333333333333334 0  -0.7333333333333334 -0.7333333333333334 0  -0.6666666666666667 -0.7333333333333334 0  -0.6 -0.7333333333333334 0  -0.5333333333333333 -0.7333333333333334 0  -0.4666666666666667 -0.7333333333333334 0  -0.4 -0.7333333333333334 0  -0.3333333333333334 -0.7333333333333334 0  -0.2666666666666667 -0.7333333333333334 0  -0.2 -0.7333333333333334 0  -0.1333333333333333 -0.7333333333333334 0  -0.06666666666666665 -0.7333333333333334 0  0 -0.7333333333333334 0  0.06666666666666665 -0.7333333333333334 0  0.1333333333333333 -0.7333333333333334 0  0.2 -0.7333333333333334 0  0.2666666666666666 -0.7333333333333334 0  0.3333333333333333 -0.7333333333333334 0  0.3999999999999999 -0.7333333333333334 0  0.4666666666666666 -0.7333333333333334 0  0.5333333333333334 -0.7333333333333334 0  0.6000000000000001 -0.7333333333333334 0  0.6666666666666667 -0.7333333333333334 0  0.7333333333333334 -0.7333333333333334 0  0.8 -0.7333333333333334 0  0.8666666666666667 -0.7333333333333334 0  0.9333333333333333 -0.7333333333333334 0  1 -0.7333333333333334 0  -1 -0.6666666666666667 0  -0.9333333333333333 -0.6666666666666667 0  -0.8666666666666667 -0.6666666666666667 0  -0.8 -0.6666666666666667 0  -0.7333333333333334 -0.6666666666666667 0  -0.6666666666666667 -0.6666666666666667 0  -0.6 -0.6666666666666667 0  -0.5333333333333333 -0.6666666666666667 0  -0.4666666666666667 -0.6666666666666667 0  -0.4 -0.6666666666666667 0  -0.3333333333333334 -0.6666666666666667 0  -0.2666666666666667 -0.6666666666666667 0  -0.2 -0.6666666666666667 0  -0.1333333333333333 -0.6666666666666667 0  -0.06666666666666665 -0.6666666666666667 0  0 -0.6666666666666667 0  0.06666666666666665 -0.6666666666666667 0  0.1333333333333333 -0.6666666666666667 0  0.2 -0.6666666666666667 0  0.2666666666666666 -0.6666666666666667 0  0.3333333333333333 -0.6666666666666667 0  0.3999999999999999 -0.6666666666666667 0  0.4666666666666666 -0.6666666666666667 0  0.5333333333333334 -0.6666666666666667 0  0.6000000000000001 -0.6666666666666667 0  0.6666666666666667 -0.6666666666666667 0  0.7333333333333334 -0.6666666666666667 0  0.8 -0.6666666666666667 0  0.8666666666666667 -0.6666666666666667 0  0.9333333333333333 -0.6666666666666667 0  1 -0.6666666666666667 0  -1 -0.6 0  -0.9333333333333333 -0.6 0  -0.8666666666666667 -0.6 0  -0.8 -0.6 0  -0.7333333333333334 -0.6 0  -0.6666666666666667 -0.6 0  -0.6 -0.6 0  -0.5333333333333333 -0.6 0  -0.4666666666666667 -0.6 0  -0.4 -0.6 0  -0.3333333333333334 -0.6 0  -0.2666666666666667 -0.6 0  -0.2 -0.6 0  -0.1333333333333333 -0.6 0  -0.06666666666666665 -0.6 0  0 -0.6 0  0.06666666666666665 -0.6 0  0.1333333333333333 -0.6 0  0.2 -0.6 0  0.2666666666666666 -0.6 0  0.3333333333333333 -0.6 0  0.3999999999999999 -0.6 0  0.4666666666666666 -0.6 0  0.5333333333333334 -0.6 0  0.6000000000000001 -0.6 0  0.6666666666666667 -0.6 0  0.7333333333333334 -0.6 0  0.8 -0.6 0  0.8666666666666667 -0.6 0  0.9333333333333333 -0.6 0  1 -0.6 0  -1 -0.5333333333333333 0  -0.9333333333333333 -0.5333333333333333 0  -0.8666666666666667 -0.5333333333333333 0  -0.8 -0.5333333333333333 0  -0.7333333333333334 -0.5333333333333333 0  -0.6666666666666667 -0.5333333333333333 0  -0.6 -0.5333333333333333 0  -0.5333333333333333 -0.5333333333333333 0  -0.4666666666666667 -0.5333333333333333 0  -0.4 -0.5333333333333333 0  -0.3333333333333334 -0.5333333333333333 0  -0.2666666666666667 -0.5333333333333333 0  -0.2 -0.5333333333333333 0  -0.1333333333333333 -0.5333333333333333 0  -0.06666666666666665 -0.5333333333333333 0  0 -0.5333333333333333 0  0.06666666666666665 -0.5333333333333333 0  0.1333333333333333 -0.5333333333333333 0  0.2 -0.5333333333333333 0  0.2666666666666666 -0.5333333333333333 0  0.3333333333333333 -0.5333333333333333 0  0.3999999999999999 -0.5333333333333333 0  0.4666666666666666 -0.5333333333333333 0  0.5333333333333334 -0.5333333333333333 0  0.6000000000000001 -0.5333333333333333 0  0.6666666666666667 -0.5333333333333333 0  0.7333333333333334 -0.5333333333333333 0  0.8 -0.5333333333333333 0  0.8666666666666667 -0.5333333333333333 0  0.9333333333333333 -0.5333333333333333 0  1 -0.5333333333333333 0  -1 -0.4666666666666667 0  -0.9333333333333333 -0.4666666666666667 0  -0.8666666666666667 -0.4666666666666667 0  -0.8 -0.4666666666666667 0  -0.7333333333333334 -0.4666666666666667 0  -0.6666666666666667 -0.4666666666666667 0  -0.6 -0.4666666666666667 0  -0.5333333333333333 -0.4666666666666667 0  -0.4666666666666667 -0.4666666666666667 0  -0.4 -0.4666666666666667 0  -0.3333333333333334 -0.4666666666666667 0  -0.2666666666666667 -0.4666666666666667 0  -0.2 -0.4666666666666667 0  -0.1333333333333333 -0.4666666666666667 0  -0.06666666666666665 -0.4666666666666667 0  0 -0.4666666666666667 0  0.06666666666666665 -0.4666666666666667 0  0.1333333333333333 -0.4666666666666667 0  0.2 -0.4666666666666667 0  0.2666666666666666 -0.4666666666666667 0  0.3333333333333333 -0.4666666666666667 0  0.3999999999999999 -0.4666666666666667 0  0.4666666666666666 -0.4666666666666667 0  0.5333333333333334 -0.4666666666666667 0  0.6000000000000001 -0.4666666666666667 0  0.6666666666666667 -0.4666666666666667 0  0.7333333333333334 -0.4666666666666667 0  0.8 -0.4666666666666667 0  0.8666666666666667 -0.4666666666666667 0  0.9333333333333333 -0.4666666666666667 0  1 -0.4666666666666667 0  -1 -0.4 0  -0.9333333333333333 -0.4 0  -0.8666666666666667 -0.4 0  -0.8 -0.4 0  -0.7333333333333334 -0.4 0  -0.6666666666666667 -0.4 0  -0.6 -0.4 0  -0.5333333333333333 -0.4 0  -0.4666666666666667 -0.4 0  -0.4 -0.4 0  -0.3333333333333334 -0.4 0  -0.2666666666666667 -0.4 0  -0.2 -0.4 0  -0.1333333333333333 -0.4 0  -0.06666666666666665 -0.4 0  0 -0.4 0  0.06666666666666665 -0.4 0  0.1333333333333333 -0.4 0  0.2 -0.4 0  0.2666666666666666 -0.4 0  0.3333333333333333 -0.4 0  0.3999999999999999 -0.4 0  0.4666666666666666 -0.4 0  0.5333333333333334 -0.4 0  0.6000000000000001 -0.4 0  0.6666666666666667 -0.4 0  0.7333333333333334 -0.4 0 
[...]
<PointData  Scalars="f_24"> 
<DataArray  type="Float64"  Name="f_24"  format="ascii">0.0000000000000000e+00  0.0000000000000000e+00  0.0000000000000000e+00  0.0000000000000000e+00  0.0000000000000000e+00  0.0000000000000000e+00  0.0000000000000000e+00  0.0000000000000000e+00  0.0000000000000000e+00  0.0000000000000000e+00  0.0000000000000000e+00  0.0000000000000000e+00  0.0000000000000000e+00  0.0000000000000000e+00  0.0000000000000000e+00  0.0000000000000000e+00  0.0000000000000000e+00  0.0000000000000000e+00  0.0000000000000000e+00  0.0000000000000000e+00  0.0000000000000000e+00  0.0000000000000000e+00  0.0000000000000000e+00  0.0000000000000000e+00  0.0000000000000000e+00  0.0000000000000000e+00  0.0000000000000000e+00  0.0000000000000000e+00  0.0000000000000000e+00  0.0000000000000000e+00  1.3231346143093795e+01  0.0000000000000000e+00  3.0425949684455021e-02  8.1907510281977985e-02  1.4062083820729401e-01  1.9938560765432209e-01  2.5635223980905836e-01  3.1122582021648110e-01  3.6431965694734281e-01  4.1624529068579519e-01  4.6778490993916538e-01  5.1985029851566433e-01  5.7347957487720924e-01  6.2985553284448148e-01  6.9034329364489244e-01  7.5654853020440282e-01  8.3040124366518120e-01  9.1427388663428533e-01  1.0111472173411069e+00  1.1248443482981096e+00  1.2603642222821831e+00  1.4243625775106019e+00  1.6258557221475165e+00  1.8772683465669087e+00  2.1960277441614449e+00  2.6070602433688763e+00  3.1468560405637693e+00  3.8704398787410401e+00  4.8643255605297657e+00  6.2724379651579829e+00  8.3593370544593704e+00  1.1553431767201879e+01  0.0000000000000000e+00  5.6796722546097918e-02  1.4877236860380033e-01  2.4516953581311790e-01  3.2792339043661184e-01  3.9246601908979084e-01  4.3846710054842519e-01  4.6774061751893248e-01  4.8296617835178091e-01  4.8701091073474129e-01  4.8257992969821106e-01  4.7204677267191564e-01  4.5740464660314667e-01  4.4029033539089091e-01  4.2204966884379058e-01  4.0382947297090777e-01  3.8669171823531373e-01  3.7175730223754822e-01  3.6040082288337405e-01  3.5453725803414804e-01  3.5707377009470465e-01  3.7265602739421055e-01  4.0893901775587155e-01  4.7879792309134722e-01  6.0424878162361217e-01  8.2357033131271795e-01  1.2047527385585297e+00  1.8723015936780618e+00  3.0678283839629450e+00  5.3032063751172211e+00  1.0040402833246247e+01  0.0000000000000000e+00  7.7816807869464544e-02  1.9486010545905388e-01  3.0143272223671441e-01  3.6926206087515051e-01  3.9631925542501717e-01  3.8918485175961937e-01  3.5793133122936910e-01  3.1235969561821270e-01  2.6046973896350450e-01  2.0802122547698612e-01  1.5870749720270055e-01  1.1459227192477944e-01  7.6581454171312513e-02  4.4831863488144122e-02  1.9064929006067308e-02  -1.2104955776789837e-03  -1.6544117235028247e-02  -2.7430305173483462e-02  -3.4197887787105481e-02  -3.6847989482393768e-02  -3.4736446210778031e-02  -2.5886004050103918e-02  -5.4688124066223599e-03  3.7529399652410929e-02  1.2759081078832329e-01  3.1853575719303662e-01  7.2923177877725776e-01  1.6266836835284617e+00  3.6651255756451264e+00  8.6810862044838384e+00  0.0000000000000000e+00  9.2935539623732508e-02  2.1993603741888942e-01  3.1447185231290337e-01  3.4492477291073259e-01  3.2153595197476736e-01  2.6533769870314022e-01  1.9739425656325257e-01  1.3253901212238919e-01  7.8829008221496966e-02  3.8965896534309381e-02  1.2327065264088046e-02  -3.3205802457162226e-03  -1.0680522367920012e-02  -1.2295663977223452e-02  -1.0278629480989822e-02  -6.2542759296928853e-03  -1.4074734663181139e-03  3.4278865967707546e-03  7.6730514277546166e-03  1.0920079691308048e-02  1.2882352831157077e-02  1.3454428069360876e-02  1.3135851539867467e-02  1.4592681732379365e-02  2.7518562185608792e-02  8.2507758052251579e-02  2.6809969906331610e-01  8.3305986090228790e-01  2.4706733200408530e+00  7.4647007840573218e+00  0.0000000000000000e+00  1.0226064864984628e-01  2.2721363537550565e-01  2.9744132391459605e-01  2.8722497908693156e-01  2.2592471851585691e-01  1.4889096226840370e-01  8.1441388700498565e-02  3.4057811107024411e-02  6.8497383055875867e-03  -5.1157168050687809e-03  -7.7317438169743850e-03  -5.8342564959413257e-03  -2.6312402828665808e-03  1.2198555281938538e-04  1.6991777416980182e-03  1.9950150715115863e-03  1.2207064798584529e-03  -2.9092491012603445e-04  -2.1969070618087245e-03  -4.2057971606661764e-03  -6.1241710333233080e-03  -7.9235838443503567e-03  -9.8353774103824704e-03  -1.2231448398470224e-02  -1.3961124847249928e-02  -4.0764792667187140e-03  6.9966862082690026e-02  4.0437810378061773e-01  1.6858573720730561e+00  6.3808575149950801e+00  0.0000000000000000e+00  1.0638328215222985e-01  2.2134906702641702e-01  2.6413009365950146e-01  2.2194893158724072e-01  1.4328065467118867e-01  7.0379429705934235e-02  2.2880241577539616e-02  3.8011393489786828e-04  -5.7847486542754005e-03  -4.5427105009390413e-03  -1.6302563123700314e-03  4.1254512020818201e-04  1.0930243748347281e-03  8.2449146099250643e-04  2.0841559156881839e-04  -2.8764640887471373e-04  -4.1145333390957565e-04  -9.5720329581244456e-05  6.0477449189357533e-04  1.5726609589755249e-03  2.6711052901153666e-03  3.7542306054095327e-03  4.5866492132078784e-03  4.5221728641558654e-03  2.1099519576348721e-03  -2.4705473131368034e-03  1.2296467892154493e-02  1.8434778876082375e-01  1.1232681903280020e+00  5.4195593802112194e+00  0.0000000000000000e+00  1.0617475325224200e-01  2.0698764933842620e-01  2.2517155429562147e-01  1.6358680313448176e-01  8.4287941046434653e-02  2.7453414090414893e-02  1.2386157265669652e-03  -4.8572286521699334e-03  -3.0092341953125339e-03  -4.3134247540508762e-04  6.7584923855672045e-04  5.8526110056263017e-04  1.2182728704803012e-04  -1.8831467343398807e-04  -2.1897045924327825e-04  -7.9627904833936281e-05  5.5920775072796661e-05  5.0410197912410954e-05  -1.6263006609125192e-04  -5.8223330729270651e-04  -1.1561433819920043e-03  -1.7880215443718105e-03  -2.3388599769251215e-03  -2.7302739564192117e-03  -3.6840182069730418e-03  -7.9480181017867121e-03  -1.2365598497620232e-02  6.2603761679394951e-02  7.3395799844147169e-01  4.5712014025055678e+00  0.0000000000000000e+00  1.0260517233628436e-01  1.8798740731403202e-01  1.8721407551228089e-01  1.1750646195964591e-01  4.6966796423702079e-02  7.6691176587176980e-03  -3.7279484906144970e-03  -2.8875121526850999e-03  -3.5557327755483359e-04  5.5390710410217401e-04  3.3570446889691694e-04  -3.0832241073762338e-05  -1.3948181838886186e-04  -5.8113382630141761e-05  3.9993660986825042e-05  6.4511327203502688e-05  2.8988238051916227e-05  7.7943502642292080e-07  4.8940412638984589e-05  2.1470306103627920e-04  5.0237675016763495e-04  8.8111431328746033e-04  1.3207522773295032e-03  1.8577075772822566e-03  2.4687289980733274e-03  1.1224727215546515e-03  -7.4220831843888500e-03  1.2597583015408250e-02  4.6595196138726658e-01  3.8265706445636805e+00  0.0000000000000000e+00  9.6611582870693380e-02  1.6717374680584421e-01  1.5360238841275078e-01  8.3804308623227464e-02  2.5278664194754500e-02  5.2946417219501831e-05  -3.3142334196328170e-03  -9.1068654193470649e-04  4.0880785202762940e-04  2.9629601686525901e-04  -2.7558730022156759e-05  -9.6149635921025938e-05  -1.7097627894107553e-05  3.2256309991753110e-05  1.8388264949060878e-05  -1.2948335346495170e-05  -2.3247119474469071e-05  -1.5140759877707375e-05  -2.1133753416616962e-05  -7.9095432787180091e-05  -2.1436787568366176e-04  -4.3115771858274224e-04  -7.3222675864285643e-04  -1.0506365017776793e-03  -1.1455094975795894e-03  -1.2528215055539551e-03  -7.5877189786752635e-03  -1.3515544451850227e-02  2.7673886641935330e-01  3.1768462089568197e+00  0.0000000000000000e+00  8.9019928116547825e-02  1.4640592328993807e-01  1.2547174859435367e-01  6.0354429618731678e-02  1.3462604390289637e-02  -2.1570369771416091e-03  -2.0198086897827562e-03  -9.5731606749051855e-06  3.5468224731415959e-04  3.5397739510900866e-05  -7.7172373760370038e-05  -1.8438954742977472e-05  2.2868888660314540e-05  8.7965690413416588e-06  -8.1672645919010369e-06  -5.0625185241402848e-06  6.2234880473489439e-06  1.0881163524059478e-05  1.2351473691481716e-05  3.0072364713366149e-05  8.8326144124574059e-05  2.0202366957263783e-04  3.8222202919722644e-04  5.5939996135109620e-04  8.7289234239200093e-04  1.5851751617687001e-03  -7.4709822004481892e-04  -1.6721442051350451e-02  1.5552451740465303e-01  2.6135992381419855e+00  0.0000000000000000e+00  8.0511263364966362e-02  1.2677577574226581e-01  1.0270967717819288e-01  4.4567022315322648e-02  7.3703065467369084e-03  -2.3543210264899638e-03  -1.0724018855773172e-03  2.3442910299617629e-04  1.7968582780166458e-04  -4.8044894349476702e-05  -3.5477004183550986e-05  1.2514740216170079e-05  9.9274604809174790e-06  -5.0998932714409365e-06  -3.2264859552694508e-06  2.3006018418350824e-06  9.8823935943960678e-07  -3.7986348356227189e-06  -6.8391333667077159e-06  -1.2376115239731730e-05  -3.5347210403889765e-05  -8.8036029616848100e-05  -1.9056730983583312e-04  -3.1416500142117447e-04  -6.0028162317156668e-04  -2.8162665118396807e-04  -9.3018131536393427e-04  -1.6660006962643199e-02  7.0132540542214433e-02  2.1287929144618842e+00  0.0000000000000000e+00  7.1618123952470206e-02  1.0882867335117266e-01  8.4624594836025635e-02  3.4164848895901510e-02  4.4177958470195747e-03  -1.9824203773757391e-03  -5.6409775112162286e-04  2.3323096463133796e-04  7.2387919566010371e-05  -4.8194114117920733e-05  -6.9811432507257081e-06  1.1368065452172726e-05  1.3408555763655135e-10  -3.5510117826707189e-06  1.0033330390758479e-06  1.0914697645701805e-06  -6.4883326124334970e-07  2.1840782965898628e-07  2.7299056634600310e-06  5.3084965289078145e-06  1.4300302190794434e-05  3.4327423367748145e-05  9.4717498311779462e-05  1.6219108984609731e-04  3.0095379513875287e-04  3.9235465758893776e-04  1.8210468743352331e-03  -1.1115938507320290e-02  2.1894639902573225e-02  1.7147824601449557e+00  0.0000000000000000e+00  6.2738126968383823e-02  9.2754459192359265e-02  7.0344011874384785e-02  2.7401999138154071e-02  3.1388689160254677e-03  -1.5508618872601778e-03  -3.4170785607158570e-04  1.7799531830063365e-04  2.9560806604639734e-05  -3.2334447541962276e-05  1.4106005237545590e-06  5.8371471513778851e-06  -1.7579970156008331e-06  -1.0119695348335472e-06  9.3745446655417556e-07  -1.0689368406025661e-07  -3.3311685487687596e-07  1.1272091462519588e-07  -6.0611354372695555e-07  -1.9115352781533630e-06  -6.2605961371041254e-06  -1.0907890466366019e-05  -4.8629161623476814e-05  -6.0124532330664232e-05  -2.1221039853856695e-04  -2.6623518585658352e-04  5.1851919432621316e-04  -6.8840343825144036e-03  -1.0735401453500755e-02  1.3643151373053541e+00  0.0000000000000000e+00  5.4155245061665865e-02  7.8532282385287949e-02  5.9020257972960295e-02  2.3031629547230578e-02  2.7552513451691964e-03  -1.1842128744146212e-03  -2.7060526982459435e-04  1.2580807543801904e-04  1.9704227667404802e-05  -2.0221308689067683e-05  1.2278849889007561e-06  2.9566888465943948e-06  -1.0192462427375763e-06  -2.4053688657021780e-07  3.2298275609934658e-07  -1.3026029754995731e-07  3.3054278866029857e-09  7.1043048529938962e-08  1.4608358678259106e-07  2.9415748200018900e-07  3.1855019508357169e-06  1.4412896753844771e-06  2.6081852794156547e-05  1.2393632015436127e-05  1.5419054465962319e-04  -7.3155906415036073e-05  1.1620328819944455e-03  -2.6217545701784821e-03  -2.4447362777185580e-02  1.0705302479429568e+00  0.0000000000000000e+00  4.6062672932214777e-02  6.6031281852867510e-02  4.9918704271357035e-02  2.0193070092902519e-02  2.8722363116600938e-03  -8.7029931715729050e-04  -2.7117366396129603e-04  8.1590027510182320e-05  2.2683577998809072e-05  -1.2201015825591414e-05  -9.5949732860989753e-07  1.7069652825887266e-06  -2.1038486544525163e-07  -1.2414862425186768e-07  6.0792765422439208e-08  -2.6982165431014445e-08  8.3794854067986084e-09  1.1315290152773614e-08  -1.3355990427861718e-07  3.1891008204493692e-07  -2.1905029509076576e-06  2.6007533134950705e-06  -1.6643733318776033e-05  6.1705193387952912e-06  -7.6303406912497937e-05  -6.2888319147440665e-05  -4.1136737936937041e-06  1.3194165813849306e-04  -3.2111692156070154e-02  8.2695913394336218e-01  0.0000000000000000e+00  3.8583956953063249e-02  5.5075839591846275e-02  4.2442814434317501e-02  1.8295717577432501e-02  3.2902596830307993e-03  -5.5694109801052594e-04  -2.9827788372591591e-04  3.6590888062852443e-05  2.8022720041886375e-05  -4.9460875672409058e-06  -2.7206467455588659e-06  6.1648673559552737e-07  2.1089784879802462e-07  -2.1188565706848782e-08  1.0454678722069881e-09  2.8522636323542897e-09  -1.0287848824810406e-08  1.3309434277245892e-08  4.1247593197331101e-08  -2.7982445566115087e-07  1.3746208510979874e-06  -2.9984386269010433e-06  1.0781071845529098e-05  -1.2655610224975431e-05  5.3333794125413722e-05  -1.7273887287872057e-05  8.2134166203032318e-05  1.8325344407994369e-03  -3.1324446717017784e-02  6.2752517707789046e-01  0.0000000000000000e+00  3.1790905064430809e-02  4.5485052233476701e-02  3.6129877157592062e-02  1.6927105750544052e-02  3.8954763340800472e-03  -1.8607536579526665e-04  -3.1710740416678566e-04  -1.6995258564914067e-05  2.7823408468146403e-05  3.2386245516181278e-06  -2.5339204642229790e-06  -5.6948997617981140e-07  8.6725776120825676e-08  4.0210195738440339e-08  3.3249302332709414e-09  9.4090886269347264e-09  -3.0179830143506064e-08  9.6786275684798420e-08  -3.0941879195120311e-07  9.4155266789321736e-07  -2.6260425945661942e-06  6.2133547891995668e-06  -1.4989785342982901e-05  2.8011546450138913e-05  -6.8822469879619195e-05  1.2205793905987653e-04  -5.0103542065856792e-04  2.6899684913617972e-03  -2.8933349803502633e-02  4.6654379900358262e-01  0.0000000000000000e+00  2.5717919417204235e-02  3.7094587166549751e-02  3.0636163890361234e-02  1.5790165666971379e-02  4.5978396102645328e-03  2.9067764520074297e-04  -2.8718058200220863e-04  -7.7633257011793907e-05  1.3828750654022609e-05  9.9216423376476411e-06  5.7388317759607380e-07  -7.8656464331696055e-07  -2.9915609911795339e-07  -7.4951164214008241e-08  -2.6763585252028546e-08  4.2090337013171045e-10  -2.1886134023690639e-08  4.2719063501314051e-08  -1.1324011513307003e-08  -1.5885856169831083e-07  6.5335808288140994e-07  -1.6443221150874396e-06  2.9249315436910221e-06  -8.6354115075218543e-07  -1.0100285899086365e-05  8.9559432676841432e-05  -4.1327937304120867e-04  2.7492950892422977e-03  -2.3694759751122268e-02  3.3872246126320121e-01  0.0000000000000000e+00  2.0372935387738184e-02  2.9767017978329605e-02  2.5720532219676219e-02  1.4666583979166261e-02  5.2978782350726937e-03  8.9627274809043437e-04  -1.5803232515956511e-04  -1.2526457593780571e-04  -1.8337354142657691e-05  7.7200385330366017e-06  4.4566649882129014e-06  9.4948925218447726e-07  4.3238205066202436e-08  -3.2248394897422181e-08  -1.6906519645041684e-09  1.9510925927966665e-08  5.7540060358463752e-10  1.0593960688030433e-07  -3.3525727285396443e-07  9.7465218986070433e-07  -2.6129972377195412e-06  5.9703863308836932e-06  -1.3115730021214214e-05  2.7520893321169246e-05  -6.2676551926019435e-05  1.5770175790164802e-04  -5.4535933628170683e-04  2.5360073902418782e-03  -1.8771916555814241e-02  2.3916066528523003e-01  0.0000000000000000e+00  1.5745478594060627e-02  2.3394805704184733e-02  2.1229796902736058e-02  1.3400919786316351e-02  5.8744135148027744e-03  1.6083122199741008e-03  1.1878721017828996e-04  -1.1507546260820877e-04  -5.6926314064993532e-05  -1.0152137992289987e-05  2.0525968624116117e-06  2.2416126772473899e-06  1.0843004062018091e-06  4.7235807155416063e-07  2.2466815505737125e-07  1.0551348799697065e-07  4.9584945357908858e-08  -5.5439007138167713e-08  9.4354175342172298e-08  -4.5468981972184247e-07  7.4585815287131987e-07  -1.3009213737135560e-06  7.3771150473081988e-07  3.8490702217598110e-06  -2.2892319183528797e-05  9.6920594004785328e-05  -3.9667431750309783e-04  1.9903903996020284e-03  -1.3641227494063980e-02  1.6334995238387409e-01  0.0000000000000000e+00  1.1812252013338612e-02  1.7898637209928511e-02  1.7085988965286281e-02  1.1899442371011749e-02  6.1920429996125811e-03  2.3420452506279026e-03  5.5923797069549379e-04  1.2722724823082811e-05  -6.1508447914816668e-05  -3.4335441289064029e-05  -1.1639392150575709e-05  -2.7730380987026129e-06  -4.2105816701054181e-07  -2.5945517341274188e-08  -5.3397790167127659e-08  -1.2893972433455178e-07  -1.8898141720703430e-07  -1.4521659889054836e-07  -3.9766705115650954e-07  4.6441023641914544e-07  -1.5923929187027069e-06  3.2608902773055699e-06  -6.9625647982704911e-06  1.4983618510066472e-05  -3.5505536877562318e-05  9.7968786893360321e-05  -3.3533932548717447e-04  1.4805319129365521e-03  -9.4727454849424415e-03  1.0717390375905980e-01  0.0000000000000000e+00  8.5409210297134955e-03  1.3222763001567184e-02  1.3274166587664929e-02  1.0136740091289426e-02  6.1281180576507280e-03  2.9517141118036048e-03  1.1083114767717623e-03  2.9490421207135355e-04  2.8775324592605274e-05  -2.5067981929508206e-05  -2.1939055424693190e-05  -1.2362399569665218e-05  -6.3039025286552873e-06  -3.3157306248724486e-06  -1.9176242022482666e-06  -1.2153318070387284e-06  -7.8623760326918105e-07  -5.9166987150666066e-07  -8.6646336524107507e-08  -6.0900373763778682e-07  9.1806181391253275e-07  -1.3194243389486602e-06  1.4642139046897041e-06  8.5565890129461459e-07  -1.0588417907300287e-05  4.8461341981879605e-05  -2.0176332372804883e-04  9.5556504800219848e-04  -6.0283926791672464e-03  6.6908140496434843e-02  0.0000000000000000e+00  5.8921516025805983e-03  9.3282891343697931e-03  9.8287679760951669e-03  8.1619898894205213e-03  5.6137971300130231e-03  3.2657596359327999e-03  1.6228631707677222e-03  6.8990422858088455e-04  2.4760755560372758e-04  7.0867513192137763e-05  1.2054982317974699e-05  -3.0587413908661150e-06  -4.8694896685552122e-06  -3.6562342583808161e-06  -2.2605236165117721e-06  -1.2026528298854885e-06  -5.1281709717758868e-07  4.7617493405918878e-08  9.4603326647810793e-08  7.8407996416470534e-07  -2.5713889190325962e-07  1.6068397932296561e-06  -1.8563998567822572e-06  4.4357568260697920e-06  -1.0514153315042053e-05  3.2925686287965985e-05  -1.2353662475078967e-04  5.6831931439644905e-04  -3.5507712090293484e-03  3.9220323567368119e-02  0.0000000000000000e+00  3.8207734620541215e-03  6.1850623387643376e-03  6.8170172952614905e-03  6.0964283157797479e-03  4.6748095327689325e-03  3.1566141789152341e-03  1.9108128434828938e-03  1.0533575273834141e-03  5.3761447790554419e-04  2.5905561393263667e-04  1.2078330845075303e-04  5.6282245597742909e-05  2.7294676726412656e-05  1.4426950287306570e-05  8.5861258449808989e-06  5.7755288209247372e-06  4.2853090790456456e-06  3.2477113548583147e-06  2.7398140024690896e-06  1.6789829088497316e-06  1.9831576829606255e-06  1.3743518854029458e-07  1.7164800384311821e-06  -7.2625702552142713e-07  -6.4364544879998712e-07  1.0131444849677873e-05  -5.3650206419955757e-05  2.8191530763930063e-04  -1.8510377723713809e-03  2.1170153828950052e-02  0.0000000000000000e+00  2.2753201167689217e-03  3.7622226966339610e-03  4.3181442774924755e-03  4.1149943816449026e-03  3.4501772451708641e-03  2.6179816501147230e-03  1.8313427715660423e-03  1.1992960743291529e-03  7.4631025631338385e-04  4.4826473846368552e-04  2.6416353176646592e-04  1.5529178656947587e-04  9.2429257324898971e-05  5.6372973524591719e-05  3.5428147284102036e-05  2.2966466517639850e-05  1.5207156794682386e-05  1.0294928361223469e-05  6.7363147851358962e-06  4.7470534376471376e-06  2.5074315290820146e-06  2.1911001370201840e-06  3.7295410841563328e-07  1.0726831915891294e-06  -8.0812407369011524e-07  3.7737936573394641e-06  -1.9781247278217162e-05  1.1568992414259896e-04  -8.2719461043615243e-04  1.0209372023992117e-02  0.0000000000000000e+00  1.1975395535113705e-03  2.0182455714011695e-03  2.3993260323960492e-03  2.4100748992216376e-03  2.1695787602472121e-03  1.8001128907927512e-03  1.4002186292625084e-03  1.0339772713929612e-03  7.3259039128439646e-04  5.0290090391356588e-04  3.3751586489915803e-04  2.2329042076218360e-04  1.4657