<?xml version="1.0"?>
<VTKFile type="UnstructuredGrid"  version="0.1"  >
<UnstructuredGrid>
<Piece  NumberOfPoints="961" NumberOfCells="1800">
<Points>
<DataArray  type="Float64"  NumberOfComponents="3"  format="ascii">-1 -1 0  -0.9333333333333333 -1 0  -0.8666666666666667 -1 0  -0.8 -1 0  -0.7333333333333334 -1 0  -0.6666666666666667 -1 0  -0.6 -1 0  -0.5333333333333333 -1 0  -0.4666666666666667 -1 0  -0.4 -1 0  -0.3333333333333334 -1 0  -0.2666666666666667 -1 0  -0.2 -1 0  -0.1333333333333333 -1 0  -0.06666666666666665 -1 0  0 -1 0  0.06666666666666665 -1 0  0.1333333333333333 -1 0  0.2 -1 0  0.2666666666666666 -1 0  0.3333333333333333 -1 0  0.3999999999999999 -1 0  0.4666666666666666 -1 0  0.5333333333333334 -1 0  0.6000000000000001 -1 0  0.6666666666666667 -1 0  0.7333333333333334 -1 0  0.8 -1 0  0.8666666666666667 -1 0  0.9333333333333333 -1 0  1 -1 0  -1 -0.9333333333333333 0  -0.9333333333333333 -0.9333333333333333 0  -0.8666666666666667 -0.9333333333333333 0  -0.8 -0.9333333333333333 0  -0.7333333333333334 -0.9333333333333333 0  -0.6666666666666667 -0.9333333333333333 0  -0.6 -0.9333333333333333 0  -0.5333333333333333 -0.9333333333333333 0  -0.4666666666666667 -0.9333333333333333 0  -0.4 -0.9333333333333333 0  -0.3333333333333334 -0.9333333333333333 0  -0.2666666666666667 -0.9333333333333333 0  -0.2 -0.9333333333333333 0  -0.1333333333333333 -0.9333333333333333 0  -0.06666666666666665 -0.9333333333333333 0  0 -0.9333333333333333 0  0.06666666666666665 -0.9333333333333333 0  0.1333333333333333 -0.9333333333333333 0  0.2 -0.9333333333333333 0  0.2666666666666666 -0.9333333333333333 0  0.3333333333333333 -0.9333333333333333 0  0.3999999999999999 -0.9333333333333333 0  0.4666666666666666 -0.9333333333333333 0  0.5333333333333334 -0.9333333333333333 0  0.6000000000000001 -0.9333333333333333 0  0.6666666666666667 -0.9333333333333333 0  0.7333333333333334 -0.9333333333333333 0  0.8 -0.9333333333333333 0  0.8666666666666667 -0.9333333333333333 0  0.9333333333333333 -0.9333333333333333 0  1 -0.9333333333333333 0  -1 -0.8666666666666667 0  -0.9333333333333333 -0.8666666666666667 0  -0.8666666666666667 -0.8666666666666667 0  -0.8 -0.8666666666666667 0  -0.7333333333333334 -0.8666666666666667 0  -0.6666666666666667 -0.8666666666666667 0  -0.6 -0.8666666666666667 0  -0.5333333333333333 -0.8666666666666667 0  -0.4666666666666667 -0.8666666666666667 0  -0.4 -0.8666666666666667 0  -0.3333333333333334 -0.8666666666666667 0  -0.2666666666666667 -0.8666666666666667 0  -0.2 -0.8666666666666667 0  -0.1333333333333333 -0.8666666666666667 0  -0.06666666666666665 -0.8666666666666667 0  0 -0.8666666666666667 0  0.06666666666666665 -0.8666666666666667 0  0.1333333333333333 -0.8666666666666667 0  0.2 -0.8666666666666667 0  0.2666666666666666 -0.8666666666666667 0  0.3333333333333333 -0.8666666666666667 0  0.3999999999999999 -0.8666666666666667 0  0.4666666666666666 -0.8666666666666667 0  0.5333333333333334 -0.8666666666666667 0  0.6000000000000001 -0.8666666666666667 0  0.6666666666666667 -0.8666666666666667 0  0.7333333333333334 -0.8666666666666667 0  0.8 -0.8666666666666667 0  0.8666666666666667 -0.8666666666666667 0  0.9333333333333333 -0.8666666666666667 0  1 -0.8666666666666667 0  -1 -0.8 0  -0.9333333333333333 -0.8 0  -0.8666666666666667 -0.8 0  -0.8 -0.8 0  -0.7333333333333334 -0.8 0  -0.6666666666666667 -0.8 0  -0.6 -0.8 0  -0.5333333333333333 -0.8 0  -0.4666666666666667 -0.8 0  -0.4 -0.8 0  -0.3333333333333334 -0.8 0  -0.2666666666666667 -0.8 0  -0.2 -0.8 0  -0.1333333333333333 -0.8 0  -0.06666666666666665 -0.8 0  0 -0.8 0  0.06666666666666665 -0.8 0  0.1333333333333333 -0.8 0  0.2 -0.8 0  0.2666666666666666 -0.8 0  0.3333333333333333 -0.8 0  0.3999999999999999 -0.8 0  0.4666666666666666 -0.8 0  0.5333333333333334 -0.8 0  0.6000000000000001 -0.8 0  0.6666666666666667 -0.8 0  0.7333333333333334 -0.8 0  0.8 -0.8 0  0.8666666666666667 -0.8 0  0.9333333333333333 -0.8 0  1 -0.8 0  -1 -0.7333333333333334 0  -0.9333333333333333 -0.7333333333333334 0  -0.8666666666666667 -0.7333333333333334 0  -0.8 -0.7333333333333334 0  -0.7333333333333334 -0.7333333333333334 0  -0.6666666666666667 -0.7333333333333334 0  -0.6 -0.7333333333333334 0  -0.5333333333333333 -0.7333333333333334 0  -0.4666666666666667 -0.7333333333333334 0  -0.4 -0.7333333333333334 0  -0.3333333333333334 -0.7333333333333334 0  -0.2666666666666667 -0.7333333333333334 0  -0.2 -0.7333333333333334 0  -0.1333333333333333 -0.7333333333333334 0  -0.06666666666666665 -0.7333333333333334 0  0 -0.7333333333333334 0  0.06666666666666665 -0.7333333333333334 0  0.1333333333333333 -0.7333333333333334 0  0.2 -0.7333333333333334 0  0.2666666666666666 -0.7333333333333334 0  0.3333333333333333 -0.7333333333333334 0  0.3999999999999999 -0.7333333333333334 0  0.4666666666666666 -0.7333333333333334 0  0.5333333333333334 -0.7333333333333334 0  0.6000000000000001 -0.7333333333333334 0  0.6666666666666667 -0.7333333333333334 0  0.7333333333333334 -0.7333333333333334 0  0.8 -0.7333333333333334 0  0.8666666666666667 -0.7333333333333334 0  0.9333333333333333 -0.7333333333333334 0  1 -0.7333333333333334 0  -1 -0.6666666666666667 0  -0.9333333333333333 -0.6666666666666667 0  -0.8666666666666667 -0.6666666666666667 0  -0.8 -0.6666666666666667 0  -0.7333333333333334 -0.6666666666666667 0  -0.6666666666666667 -0.6666666666666667 0  -0.6 -0.6666666666666667 0  -0.5333333333333333 -0.6666666666666667 0  -0.4666666666666667 -0.6666666666666667 0  -0.4 -0.6666666666666667 0  -0.3333333333333334 -0.6666666666666667 0  -0.2666666666666667 -0.6666666666666667 0  -0.2 -0.6666666666666667 0  -0.1333333333333333 -0.6666666666666667 0  -0.06666666666666665 -0.6666666666666667 0  0 -0.6666666666666667 0  0.06666666666666665 -0.6666666666666667 0  0.1333333333333333 -0.6666666666666667 0  0.2 -0.6666666666666667 0  0.2666666666666666 -0.6666666666666667 0  0.3333333333333333 -0.6666666666666667 0  0.3999999999999999 -0.6666666666666667 0  0.4666666666666666 -0.6666666666666667 0  0.5333333333333334 -0.6666666666666667 0  0.6000000000000001 -0.6666666666666667 0  0.6666666666666667 -0.6666666666666667 0  0.7333333333333334 -0.6666666666666667 0  0.8 -0.6666666666666667 0  0.8666666666666667 -0.6666666666666667 0  0.9333333333333333 -0.6666666666666667 0  1 -0.6666666666666667 0  -1 -0.6 0  -0.9333333333333333 -0.6 0  -0.8666666666666667 -0.6 0  -0.8 -0.6 0  -0.7333333333333334 -0.6 0  -0.6666666666666667 -0.6 0  -0.6 -0.6 0  -0.5333333333333333 -0.6 0  -0.4666666666666667 -0.6 0  -0.4 -0.6 0  -0.3333333333333334 -0.6 0  -0.2666666666666667 -0.6 0  -0.2 -0.6 0  -0.1333333333333333 -0.6 0  -0.06666666666666665 -0.6 0  0 -0.6 0  0.06666666666666665 -0.6 0  0.1333333333333333 -0.6 0  0.2 -0.6 0  0.2666666666666666 -0.6 0  0.3333333333333333 -0.6 0  0.3999999999999999 -0.6 0  0.4666666666666666 -0.6 0  0.5333333333333334 -0.6 0  0.6000000000000001 -0.6 0  0.6666666666666667 -0.6 0  0.7333333333333334 -0.6 0  0.8 -0.6 0  0.8666666666666667 -0.6 0  0.9333333333333333 -0.6 0  1 -0.6 0  -1 -0.5333333333333333 0  -0.9333333333333333 -0.5333333333333333 0  -0.8666666666666667 -0.5333333333333333 0  -0.8 -0.5333333333333333 0  -0.7333333333333334 -0.5333333333333333 0  -0.6666666666666667 -0.5333333333333333 0  -0.6 -0.5333333333333333 0  -0.5333333333333333 -0.5333333333333333 0  -0.4666666666666667 -0.5333333333333333 0  -0.4 -0.5333333333333333 0  -0.3333333333333334 -0.5333333333333333 0  -0.2666666666666667 -0.5333333333333333 0  -0.2 -0.5333333333333333 0  -0.1333333333333333 -0.5333333333333333 0  -0.06666666666666665 -0.5333333333333333 0  0 -0.5333333333333333 0  0.06666666666666665 -0.5333333333333333 0  0.1333333333333333 -0.5333333333333333 0  0.2 -0.5333333333333333 0  0.2666666666666666 -0.5333333333333333 0  0.3333333333333333 -0.5333333333333333 0  0.3999999999999999 -0.5333333333333333 0  0.4666666666666666 -0.5333333333333333 0  0.5333333333333334 -0.5333333333333333 0  0.6000000000000001 -0.5333333333333333 0  0.6666666666666667 -0.5333333333333333 0  0.7333333333333334 -0.5333333333333333 0  0.8 -0.5333333333333333 0  0.8666666666666667 -0.5333333333333333 0  0.9333333333333333 -0.5333333333333333 0  1 -0.5333333333333333 0  -1 -0.4666666666666667 0  -0.9333333333333333 -0.4666666666666667 0  -0.8666666666666667 -0.4666666666666667 0  -0.8 -0.4666666666666667 0  -0.7333333333333334 -0.4666666666666667 0  -0.6666666666666667 -0.4666666666666667 0  -0.6 -0.4666666666666667 0  -0.5333333333333333 -0.4666666666666667 0  -0.4666666666666667 -0.4666666666666667 0  -0.4 -0.4666666666666667 0  -0.3333333333333334 -0.4666666666666667 0  -0.2666666666666667 -0.4666666666666667 0  -0.2 -0.4666666666666667 0  -0.1333333333333333 -0.4666666666666667 0  -0.06666666666666665 -0.4666666666666667 0  0 -0.4666666666666667 0  0.06666666666666665 -0.4666666666666667 0  0.1333333333333333 -0.4666666666666667 0  0.2 -0.4666666666666667 0  0.2666666666666666 -0.4666666666666667 0  0.3333333333333333 -0.4666666666666667 0  0.3999999999999999 -0.4666666666666667 0  0.4666666666666666 -0.4666666666666667 0  0.5333333333333334 -0.4666666666666667 0  0.6000000000000001 -0.4666666666666667 0  0.6666666666666667 -0.4666666666666667 0  0.7333333333333334 -0.4666666666666667 0  0.8 -0.4666666666666667 0  0.8666666666666667 -0.4666666666666667 0  0.9333333333333333 -0.4666666666666667 0  1 -0.4666666666666667 0  -1 -0.4 0  -0.9333333333333333 -0.4 0  -0.8666666666666667 -0.4 0  -0.8 -0.4 0  -0.7333333333333334 -0.4 0  -0.6666666666666667 -0.4 0  -0.6 -0.4 0  -0.5333333333333333 -0.4 0  -0.4666666666666667 -0.4 0  -0.4 -0.4 0  -0.3333333333333334 -0.4 0  -0.2666666666666667 -0.4 0  -0.2 -0.4 0  -0.1333333333333333 -0.4 0  -0.06666666666666665 -0.4 0  0 -0.4 0  0.06666666666666665 -0.4 0  0.1333333333333333 -0.4 0  0.2 -0.4 0  0.2666666666666666 -0.4 0  0.3333333333333333 -0.4 0  0.3999999999999999 -0.4 0  0.4666666666666666 -0.4 0  0.5333333333333334 -0.4 0  0.6000000000000001 -0.4 0  0.6666666666666667 -0.4 0  0.7333333333333334 -0.4 0 
[...]
<PointData  Scalars="f_24"> 
<DataArray  type="Float64"  Name="f_24"  format="ascii">0.0000000000000000e+00  0.0000000000000000e+00  0.0000000000000000e+00  0.0000000000000000e+00  0.0000000000000000e+00  0.0000000000000000e+00  0.0000000000000000e+00  0.0000000000000000e+00  0.0000000000000000e+00  0.0000000000000000e+00  0.0000000000000000e+00  0.0000000000000000e+00  0.0000000000000000e+00  0.0000000000000000e+00  0.0000000000000000e+00  0.0000000000000000e+00  0.0000000000000000e+00  0.0000000000000000e+00  0.0000000000000000e+00  0.0000000000000000e+00  0.0000000000000000e+00  0.0000000000000000e+00  0.0000000000000000e+00  0.0000000000000000e+00  0.0000000000000000e+00  0.0000000000000000e+00  0.0000000000000000e+00  0.0000000000000000e+00  0.0000000000000000e+00  0.0000000000000000e+00  1.5068232537347980e+01  0.0000000000000000e+00  -7.8200465513766185e-08  -1.1886040637777431e-06  -4.9476855339136877e-06  -1.2698155157598079e-05  -2.3726177784230330e-05  -3.2782654596737532e-05  -2.6508157097704190e-05  2.1887121715075836e-05  1.6070715074782647e-04  4.7221379645507775e-04  1.0919442365195078e-03  2.2388834757916445e-03  4.2628292588373657e-03  7.7190709229358594e-03  1.3486564296846937e-02  2.2955409594090717e-02  3.8324473769175880e-02  6.3072812502936615e-02  1.0270151959411143e-01  1.6588651135769350e-01  2.6623290153073254e-01  4.2486129850216514e-01  6.7404858190116923e-01  1.0620349247459611e+00  1.6588734497056383e+00  2.5630686340234217e+00  3.9098574701909898e+00  5.8880625000734170e+00  8.7949435461012531e+00  1.3157376021293848e+01  0.0000000000000000e+00  -1.7783376242308765e-07  -1.9885895375308901e-06  -7.8719774093921660e-06  -2.0035359553093073e-05  -3.8850532251611426e-05  -6.1739910621476837e-05  -8.2533185662564781e-05  -9.1208979131365204e-05  -7.3912934634786387e-05  -1.3162023742827883e-05  1.1184893066423105e-04  3.2498509532601755e-04  6.5334026267564521e-04  1.1288731813610144e-03  1.7941202131974601e-03  2.7181884317166597e-03  4.0371706013032135e-03  6.0500894199572268e-03  9.4363981414823800e-03  1.5729402073672738e-02  2.8304651700308964e-02  5.4348702297518939e-02  1.0857176752721800e-01  2.1978668623418673e-01  4.4184895878141295e-01  8.7108293640593204e-01  1.6750465629833355e+00  3.1502252285411800e+00  5.8818364715100095e+00  1.1434295726513778e+01  0.0000000000000000e+00  -2.4736547005959306e-07  -2.2812722247826886e-06  -8.4179420919881654e-06  -2.0368514727937213e-05  -3.8150894924119367e-05  -6.0263559759366099e-05  -8.4710391728166486e-05  -1.1041454343282575e-04  -1.3867015910060994e-04  -1.7448015326063099e-04  -2.2780506080020027e-04  -3.1489779976363229e-04  -4.6005486741641262e-04  -6.9833829843131065e-04  -1.0801885909861400e-03  -1.6793833965837340e-03  -2.6062457514386588e-03  -4.0270400973672392e-03  -6.1833745444906671e-03  -9.3780912654142616e-03  -1.3811001989347330e-02  -1.8933887182630671e-02  -2.1524509923184033e-02  -1.0806707081950584e-02  4.2439755721606000e-02  2.0797555764459288e-01  6.3936963718937234e-01  1.6661607081588319e+00  4.0418224175138038e+00  9.8862673677540105e+00  0.0000000000000000e+00  -2.7704848732640566e-07  -2.1616305215310217e-06  -7.2782851396910051e-06  -1.6133605644935573e-05  -2.7557528880950167e-05  -3.9508025804937704e-05  -5.0218841297162488e-05  -5.8940407304389856e-05  -6.5983891415329608e-05  -7.2158424602624554e-05  -7.7845572395270028e-05  -8.1952631428938925e-05  -8.0916432329642825e-05  -6.7877650544083257e-05  -3.2199456989537765e-05  4.0174643123921832e-05  1.6404516323176939e-04  3.4592727018772148e-04  5.5888880089407090e-04  6.8176780440525606e-04  3.7923086309431112e-04  -1.0462723067868626e-03  -4.5160193934234809e-03  -9.5403220989037710e-03  -7.7559057337793667e-03  3.5858905414931933e-02  2.3010218958446990e-01  8.7294039337980089e-01  2.7754947000760266e+00  8.5010131259100383e+00  0.0000000000000000e+00  -2.7125443574002441e-07  -1.8084712158749473e-06  -5.4707656999162376e-06  -1.0806837187414541e-05  -1.6111951201816815e-05  -1.9587373056471657e-05  -2.0269010454770803e-05  -1.8182206683261485e-05  -1.3903322359168993e-05  -7.9969596329155401e-06  -6.9305491958018626e-07  8.0608755789688790e-06  1.8229245311150982e-05  2.9161251428057333e-05  3.9121313902389488e-05  4.5161493471323778e-05  4.3766716917870244e-05  3.2820157452033881e-05  1.4567821061776905e-05  -6.6530838516451442e-06  -6.0371021040217828e-05  -3.5958056313187487e-04  -1.6735043917239024e-03  -5.6995434649391927e-03  -1.3485765363399595e-02  -1.4710100134120977e-02  5.1992605754309446e-02  4.2171544324041921e-01  1.8832046536729523e+00  7.2667016480266122e+00  0.0000000000000000e+00  -2.4138916623720952e-07  -1.3849616127893362e-06  -3.7283472526103070e-06  -6.4338050169013715e-06  -8.0725548514048049e-06  -7.7759114039668715e-06  -5.6995733838326615e-06  -2.6894532015778364e-06  3.1011752991466060e-07  2.6259541353464463e-06  3.8913926705502280e-06  3.8983762436606867e-06  2.4760233977650623e-06  -4.7363224152014754e-07  -4.7628388892591797e-06  -9.5836186026429441e-06  -1.3095989732913152e-05  -1.1742615503953178e-05  1.8436351676078088e-06  4.5811715015494375e-05  1.6524382350742184e-04  4.3719511436789079e-04  8.2729768411731082e-04  5.5383352594188780e-04  -2.9573750703287688e-03  -1.1542627250452646e-02  -1.1815139611207380e-03  1.8831494072083477e-01  1.2661806142886236e+00  6.1719480472977333e+00  0.0000000000000000e+00  -1.9989430836306382e-07  -9.9382816595481060e-07  -2.3697784143429022e-06  -3.5227372913077957e-06  -3.5946511009227320e-06  -2.5010259533577341e-06  -8.8577515346751986e-07  4.6813028534679458e-07  1.1129400665434771e-06  1.0250122501070549e-06  4.4437281595284880e-07  -3.0649690823919819e-07  -9.1250004157646298e-07  -1.0910964609209485e-06  -6.3939051154249386e-07  4.2055958450914979e-07  1.5428856690339307e-06  1.1067318451912077e-06  -4.6133514627476040e-06  -2.2741977814448522e-05  -6.0505254207105464e-05  -9.8363349321636579e-05  -3.3666800816543211e-05  1.8139084433859302e-04  -6.1458536788977958e-04  -6.7442658655394207e-03  -1.6473211365455705e-02  6.3563369323105717e-02  8.2555864262104428e-01  5.2058139030666606e+00  0.0000000000000000e+00  -1.5651574119927028e-07  -6.7925733799355645e-07  -1.4336422972914049e-06  -1.8192755627125031e-06  -1.4564751914446447e-06  -6.1164067485635979e-07  1.4281279439120867e-07  4.4796020295767767e-07  3.3036905098984245e-07  3.8432535457152421e-08  -1.8561525146440852e-07  -2.2300106228631682e-07  -8.2272518964682763e-08  1.4094510795891929e-07  3.0807363995411109e-07  2.9944407771097008e-07  1.3853509151402433e-07  2.2324482141295625e-07  1.6266347597115704e-06  5.8762603480156639e-06  1.2122197554807423e-05  1.3771803935748582e-05  3.3983840802466682e-05  2.5037259209727714e-04  7.3348822103494612e-04  -1.2128850871200370e-03  -1.2524669012192255e-02  7.1139831157387831e-03  5.2435066296176680e-01  4.3578072608259131e+00  0.0000000000000000e+00  -1.1719812618269453e-07  -4.4743619826672354e-07  -8.3806342432807456e-07  -9.0401126914627100e-07  -5.4482881542831129e-07  -7.1412048085590754e-08  1.8237115958349729e-07  1.5929168594181262e-07  1.9739827781793902e-08  -7.0790788488640840e-08  -6.1399335755828281e-08  2.0477876892458126e-09  4.9254631812061827e-08  3.9024486897227983e-08  -2.2859651817370279e-08  -9.2717156457128785e-08  -1.2602028047106715e-07  -1.5499940785095544e-07  -3.7585735802469633e-07  -1.0239052679543565e-06  -2.1328244540418571e-06  -7.9809604454572418e-06  -4.1437081495062614e-05  -7.7071775646589527e-05  1.9656124935813881e-04  2.8457636641496687e-04  -7.6121439550814176e-03  -1.6462881134229088e-02  3.1318946779317064e-01  3.6178826322172490e+00  0.0000000000000000e+00  -8.4613021996182295e-08  -2.8649945599264412e-07  -4.7883809634863854e-07  -4.3957382963544362e-07  -1.8965272447589449e-07  3.6009506590498462e-08  9.1962120405507824e-08  3.2134838465447481e-08  -2.3951245786245266e-08  -2.5782587802893571e-08  7.0066870961539251e-10  1.5404668382123348e-08  6.9359001324500907e-09  -8.7573478582592589e-09  -1.0846072391563178e-08  7.4467847467468621e-09  3.4495084317442146e-08  5.4845764092384723e-08  7.3511735846188027e-08  1.2183091294639018e-07  7.0511008888818275e-07  4.9855276600562539e-06  1.2702757277949773e-05  -1.4265231991524991e-05  6.8009814648977514e-05  7.5459972206751462e-04  -2.4808334288734905e-03  -2.1567883775755300e-02  1.7344011688858241e-01  2.9764409950317012e+00  0.0000000000000000e+00  -5.9242697235876669e-08  -1.7942532518739179e-07  -2.6974627106615975e-07  -2.1237285122988329e-07  -6.1684274898577350e-08  3.6073039263327479e-08  3.5446901566013426e-08  -3.5274042256522442e-10  -1.3317346958783642e-08  -3.2926908116148747e-09  5.2586990935467878e-09  2.8311439134948555e-09  -2.5179540510152203e-09  -2.4728767953477700e-09  1.5986783891216181e-09  2.3991070114464644e-09  -4.1942368538601752e-09  -1.3645684333946365e-08  -1.3331740539149960e-08  -5.5699217194788274e-09  -3.6335341715917786e-07  -1.7083750510285643e-06  -3.1615159238237861e-07  -7.1183073945886629e-06  -9.0750967624808563e-05  3.9249473245657013e-04  -4.2751419566363909e-05  -1.8947046918334792e-02  8.0244414511895373e-02  2.4243297932095378e+00  0.0000000000000000e+00  -4.0387743944580191e-08  -1.1037230811002881e-07  -1.5079633151822824e-07  -1.0341513574762040e-07  -1.8913668951888032e-08  2.1378082928120084e-08  1.1901757333558420e-08  -3.9305682904099305e-09  -4.4658037351829432e-09  9.6333158662810336e-10  1.8130767112894173e-09  -4.0966056521728431e-10  -9.1622121658256267e-10  3.1599908145962655e-10  6.3462238308616411e-10  -3.5243528767303339e-10  -2.7276831650685855e-10  1.9769263293592726e-09  1.1869490349033417e-09  -1.5329293412337518e-09  1.8825544503482688e-07  5.7946917690696552e-08  5.9036757634562386e-07  1.0251264475889757e-05  -3.1739064597395977e-05  6.8914256552645947e-05  1.2286748665434283e-03  -1.3465306575370544e-02  2.2760830091344154e-02  1.9528429368402980e+00  0.0000000000000000e+00  -2.6876999699379024e-08  -6.6870096190378033e-08  -8.4034873416683300e-08  -5.1419221142321566e-08  -5.7283360088739196e-09  1.0846644523028146e-08  3.7912660623853003e-09  -2.3966913271995911e-09  -1.1688369136679738e-09  7.6117149229480249e-10  3.2606166723945035e-10  -3.4009990639186221e-10  -6.5652383964274270e-11  1.9380446756014726e-10  -3.9409723078499664e-11  -1.3644607963719413e-10  3.8082973562611097e-11  1.7411136528550499e-10  7.3449285885557798e-10  -1.4885271898914575e-09  -7.7979866995427062e-08  3.0093643332332446e-07  -1.9684611056825020e-06  4.2417602940795880e-06  -8.1084768377275125e-06  -1.0913226572822982e-04  1.2182473485119287e-03  -7.7938944168816429e-03  -1.1511747508079507e-02  1.5537208021627662e+00  0.0000000000000000e+00  -1.7482090765386746e-08  -3.9958305047460567e-08  -4.6808288967888836e-08  -2.6372950797151539e-08  -2.0296270676964448e-09  5.1821816664882967e-09  1.2953517509014918e-09  -1.0862625755598188e-09  -2.8058953852755598e-10  3.0552753820973210e-10  2.0089707757507423e-11  -9.9127614204480602e-11  2.7877286062813316e-11  3.0312287945640475e-11  -3.2409507956930794e-11  -7.6073710871449844e-12  1.7590671210459025e-10  -7.6647541345651589e-10  1.4705948334843395e-09  -2.5958810737252761e-09  2.3059748068838138e-08  -1.1044282658244083e-07  8.3893362599584724e-07  -3.9102647914431104e-06  2.5736772378087075e-05  -1.4886410305237901e-04  8.7657957789745000e-04  -3.1746636463307392e-03  -2.9033600985333623e-02  1.2191502315649843e+00  0.0000000000000000e+00  -1.1116832435363276e-08  -2.3554919543026780e-08  -2.6082163049471069e-08  -1.4028254678671727e-08  -1.0866167902610004e-09  2.4180753546909042e-09  5.5492241818917178e-10  -4.3714310640801539e-10  -8.5303443098355752e-11  9.8889003187518491e-11  -5.6645941426330630e-12  -1.3211091514334700e-11  -2.0429840584997053e-11  9.9557164918469306e-11  -2.9211860917970947e-10  7.9524903616459271e-10  -2.1947195748219079e-09  6.3032371500124248e-09  -1.7972117343925368e-08  4.9652675380626074e-08  -1.2903100178424815e-07  2.8268695565812042e-07  -4.2992726991129176e-07  -8.8772629378213050e-07  1.1131078173889090e-05  -7.3690444626404523e-05  3.1807414317130885e-04  1.2307607480841238e-04  -3.6058093648150019e-02  9.4176453358424872e-01  0.0000000000000000e+00  -6.9055172324317565e-09  -1.3685708494883412e-08  -1.4523853194256532e-08  -7.7299259101187978e-09  -8.3041908818603065e-10  1.1037397191724163e-09  3.0800855679126373e-10  -1.5997435600802748e-10  -3.9331440009394503e-11  2.1413567851788604e-11  9.3210818589409104e-12  4.8877641319279395e-12  -1.0657928382533604e-10  4.7987362202490879e-10  -1.6714183778759071e-09  5.1577341103846812e-09  -1.4648901507677374e-08  3.8654438747677058e-08  -9.5083657570909093e-08  2.1871427311103413e-07  -4.7332749519951362e-07  9.7252351548383334e-07  -1.8989864262218066e-06  3.5526569475539444e-06  -5.9722796852327590e-06  1.3383469853459078e-05  -1.1968792110957928e-04  2.0894284547079453e-03  -3.6257104403383755e-02  7.1464348290711111e-01  0.0000000000000000e+00  -4.1826240052131447e-09  -7.8214518466340634e-09  -8.0592451907724760e-09  -4.3793067614732995e-09  -6.9779493431321405e-10  4.7409788322832206e-10  1.9235732871215939e-10  -4.4831982255890141e-11  -2.0026673812932685e-11  -1.3281951682642846e-11  4.3298599106662239e-11  -4.4717004050757849e-11  -1.0756926158854790e-10  8.6383420342975562e-10  -3.4926395338561227e-09  1.1154862819804556e-08  -3.1092705875157182e-08  7.9249545524054046e-08  -1.9059726232365271e-07  4.4292441130198785e-07  -1.0118637176137872e-06  2.3010969215998849e-06  -5.2755041130771263e-06  1.2446747947550710e-05  -3.1799459887436060e-05  9.7367785473923118e-05  -4.2764925895568469e-04  3.0140695364584444e-03  -3.2682892244649098e-02  5.3131332036937740e-01  0.0000000000000000e+00  -2.4630363780729965e-09  -4.3826731650700217e-09  -4.4355608112861215e-09  -2.5197589772322921e-09  -5.6849909113508891e-10  1.6883907445831747e-10  1.1648889479087956e-10  4.2215966365254405e-12  -1.4537765384937773e-11  -1.6817763889613805e-11  6.6096310406919611e-11  -1.4467990000943165e-10  1.4720832128161223e-10  3.7853915624745415e-10  -2.7824008780408984e-09  1.0544037446220722e-08  -3.1987614663746973e-08  8.6163070812948650e-08  -2.1550949974088020e-07  5.1417382006998418e-07  -1.1963158648367445e-06  2.7753435280542921e-06  -6.5766510830307792e-06  1.6372060809420286e-05  -4.4452211054512646e-05  1.3991588543175456e-04  -5.5970716350073498e-04  3.1683166271897893e-03  -2.7230055947027088e-02  3.8574675295610833e-01  0.0000000000000000e+00  -1.4042228876195351e-09  -2.3967210605055390e-09  -2.4056536270024105e-09  -1.4505383390586750e-09  -4.3535481132974259e-10  2.3423246458578755e-11  6.2651223110413774e-11  2.0256276638849050e-11  -1.7709856843376612e-11  1.3843967810589302e-11  1.6300483175612320e-11  -1.3265391094954970e-10  3.7970681819601392e-10  -6.6711164635153213e-10  3.5268314368172750e-10  2.8604525572909759e-09  -1.5566362414767971e-08  5.4762718519475620e-08  -1.6196553175608906e-07  4.3622797420054325e-07  -1.1135935966083902e-06  2.7698870708954674e-06  -6.8880517289924198e-06  1.7644980820528676e-05  -4.8413613868608864e-05  1.5006751366186899e-04  -5.6596746668649155e-04  2.8516587190514798e-03  -2.1270445848086461e-02  2.7236295380161957e-01  0.0000000000000000e+00  -7.7059206245025032e-10  -1.2711273229088840e-09  -1.2750050153966343e-09  -8.2198578285514074e-10  -3.1149618051124053e-10  -3.8041547049205970e-11  2.7088036824327089e-11  1.3782434408958653e-11  -9.4486385261372929e-12  3.4633504217189040e-11  -6.6918546723726750e-11  5.6616450488144722e-11  1.2293825041507872e-10  -6.8830176994669402e-10  1.7921804263085173e-09  -2.9150164229811568e-09  1.1019992941411049e-09  1.3554976206148943e-08  -6.8983499584111935e-08  2.3836270485238324e-07  -7.0933337255169910e-07  1.9683035597974004e-06  -5.3242622149431588e-06  1.4542899892094653e-05  -4.1636651223344733e-05  1.3105175293224696e-04  -4.8404788224652419e-04  2.2919617550103575e-03  -1.5619051909077759e-02  1.8602756218948133e-01  0.0000000000000000e+00  -4.0384094123519600e-10  -6.4829360402373029e-10  -6.5337797233246882e-10  -4.5091891433375395e-10  -2.0728132551026861e-10  -5.3479681925835293e-11  3.8447681935526693e-12  1.0484075298730797e-12  1.0959990435244886e-11  4.3384893762186221e-12  -5.1865655564435677e-11  1.5227127044126467e-10  -2.6868318276286100e-10  2.1653640265467345e-10  4.4366941928150190e-10  -2.3608507726417176e-09  5.7014396939225250e-09  -7.5815990878486846e-09  -5.3632398029032684e-09  7.6689284765545377e-08  -3.3179810808567930e-07  1.1180876679790720e-06  -3.4102338328546392e-06  1.0086776746134541e-05  -3.0426003438376421e-05  9.8448731694033884e-05  -3.6367051759393328e-04  1.6692608986304510e-03  -1.0756069119147114e-02  1.2205268355251871e-01  0.0000000000000000e+00  -1.9994758415641977e-10  -3.1430485008551986e-10  -3.1938674391902905e-10  -2.3533849102544705e-10  -1.2676671178345015e-10  -4.6559790961796121e-11  -1.0471783351445009e-11  -1.4632164361944156e-12  1.3499229442554137e-11  -2.7069759577199319e-11  3.6284114495540892e-11  5.8380313328553517e-12  -1.6646064658521119e-10  4.8537563268041085e-10  -8.1602484199040324e-10  5.5093915944384981e-10  1.6378991520047585e-09  -7.4582803640078658e-09  1.6283608983157924e-08  -1.5174309327158661e-08  -5.1808899101774888e-08  3.7373250220422978e-07  -1.5431997190439500e-06  5.4228091570060555e-06  -1.8213638770910739e-05  6.2891006155181242e-05  -2.3951304691437959e-04  1.0979549104253204e-03  -6.8868684078449791e-03  7.6196889472811558e-02  0.0000000000000000e+00  -9.2135482932973711e-11  -1.4254686889259808e-10  -1.4635525183885583e-10  -1.1451466071974618e-10  -6.9861467682208090e-11  -3.3028495957395280e-11  -1.3802419633788103e-11  1.2360372119581644e-12  -4.2626653656705649e-12  -6.2618289018168242e-12  3.9457270185976419e-11  -9.3123722520107052e-11  1.2394084745630371e-10  -1.0772315374745395e-11  -4.2270071358560524e-10  1.2366828624228393e-09  -1.9443186749346330e-09  8.5033796900192039e-10  5.2807041652022449e-09  -1.9028264658920484e-08  3.0532176780076887e-08  2.5902266951770766e-08  -4.1810434806875093e-07  2.1143935027662988e-06  -8.6027030548648597e-06  3.3350078051747504e-05  -1.3591075468021450e-04  6.4236334831626100e-04  -4.0376630760368152e-03  4.4665217681694402e-02  0.0000000000000000e+00  -3.8672088380521859e-11  -5.9110020871113133e-11  -6.1404203396120154e-11  -5.0534412421187075e-11  -3.4058568453060920e-11  -1.9973922295801518e-11  -8.8171700921790297e-12  -2.2882680766768550e-12  -8.4289052909979759e-12  1.6093526648240465e-11  -1.9612267898647205e-11  -6.9610725717477098e-12  9.2113651772687440e-11  -2.2849604877730214e-10  2.9564024850305575e-10  7.5257008951403125e-13  -1.0207446607691218e-09  2.6555506222421573e-09  -3.1264786480857615e-09  -2.6283166108961161e-09  2.2734838912570678e-08  -5.7212058489846653e-08  4.2599571721064672e-08  3.7146606659606317e-07  -2.7128235788448149e-06  1.3514205379299252e-05  -6.3276001293967546e-05  3.2325822097149581e-04  -2.1117528775622197e-03  2.4109172059756746e-02  0.0000000000000000e+00  -1.4320059130080968e-11  -2.1664145951482376e-11  -2.2771364185786748e-11  -1.9454160499615021e-11  -1.4473992907760885e-11  -9.4339097352090607e-12  -4.3394301690075364e-12  -5.1917839175131367e-12  1.7259782041249401e-12  1.1912526027336824e-12  -1.7692352479816451e-11  4.2921117292457296e-11  -5.4800180658475060e-11  -3.2511140746407114e-12  1.9170566184822745e-10  -4.7011767020885937e-10  5.1507575214727943e-10  3.9385156130957602e-10  -3.0247545144777507e-09  6.7109183746526691e-09  -6.1546779315519072e-09  -1.2312067529421601e-08  6.5550676932949463e-08  -1.1481367554448757e-07  -2.4834023342804181e-07  3.3495984590048104e-06  -2.1685176508433967e-05  1.3097710981893173e-04  -9.4150956454068188e-04  1.1626722636842566e-02  0.0000000000000000e+00  -4.4514633631188167e-12  -6.6519175581123957e-12  -7.0409298334391691e-12  -6.2171446551168118e-12  -5.0772794437232203e-12  -3.0820