<?xml version="1.0"?>
<VTKFile type="UnstructuredGrid"  version="0.1"  >
<UnstructuredGrid>
<Piece  NumberOfPoints="961" NumberOfCells="1800">
<Points>
<DataArray  type="Float64"  NumberOfComponents="3"  format="ascii">-1 -1 0  -0.9333333333333333 -1 0  -0.8666666666666667 -1 0  -0.8 -1 0  -0.7333333333333334 -1 0  -0.6666666666666667 -1 0  -0.6 -1 0  -0.5333333333333333 -1 0  -0.4666666666666667 -1 0  -0.4 -1 0  -0.3333333333333334 -1 0  -0.2666666666666667 -1 0  -0.2 -1 0  -0.1333333333333333 -1 0  -0.06666666666666665 -1 0  0 -1 0  0.06666666666666665 -1 0  0.1333333333333333 -1 0  0.2 -1 0  0.2666666666666666 -1 0  0.3333333333333333 -1 0  0.3999999999999999 -1 0  0.4666666666666666 -1 0  0.5333333333333334 -1 0  0.6000000000000001 -1 0  0.6666666666666667 -1 0  0.7333333333333334 -1 0  0.8 -1 0  0.8666666666666667 -1 0  0.9333333333333333 -1 0  1 -1 0  -1 -0.9333333333333333 0  -0.9333333333333333 -0.9333333333333333 0  -0.8666666666666667 -0.9333333333333333 0  -0.8 -0.9333333333333333 0  -0.7333333333333334 -0.9333333333333333 0  -0.6666666666666667 -0.9333333333333333 0  -0.6 -0.9333333333333333 0  -0.5333333333333333 -0.9333333333333333 0  -0.4666666666666667 -0.9333333333333333 0  -0.4 -0.9333333333333333 0  -0.3333333333333334 -0.9333333333333333 0  -0.2666666666666667 -0.9333333333333333 0  -0.2 -0.9333333333333333 0  -0.1333333333333333 -0.9333333333333333 0  -0.06666666666666665 -0.9333333333333333 0  0 -0.9333333333333333 0  0.06666666666666665 -0.9333333333333333 0  0.1333333333333333 -0.9333333333333333 0  0.2 -0.9333333333333333 0  0.2666666666666666 -0.9333333333333333 0  0.3333333333333333 -0.9333333333333333 0  0.3999999999999999 -0.9333333333333333 0  0.4666666666666666 -0.9333333333333333 0  0.5333333333333334 -0.9333333333333333 0  0.6000000000000001 -0.9333333333333333 0  0.6666666666666667 -0.9333333333333333 0  0.7333333333333334 -0.9333333333333333 0  0.8 -0.9333333333333333 0  0.8666666666666667 -0.9333333333333333 0  0.9333333333333333 -0.9333333333333333 0  1 -0.9333333333333333 0  -1 -0.8666666666666667 0  -0.9333333333333333 -0.8666666666666667 0  -0.8666666666666667 -0.8666666666666667 0  -0.8 -0.8666666666666667 0  -0.7333333333333334 -0.8666666666666667 0  -0.6666666666666667 -0.8666666666666667 0  -0.6 -0.8666666666666667 0  -0.5333333333333333 -0.8666666666666667 0  -0.4666666666666667 -0.8666666666666667 0  -0.4 -0.8666666666666667 0  -0.3333333333333334 -0.8666666666666667 0  -0.2666666666666667 -0.8666666666666667 0  -0.2 -0.8666666666666667 0  -0.1333333333333333 -0.8666666666666667 0  -0.06666666666666665 -0.8666666666666667 0  0 -0.8666666666666667 0  0.06666666666666665 -0.8666666666666667 0  0.1333333333333333 -0.8666666666666667 0  0.2 -0.8666666666666667 0  0.2666666666666666 -0.8666666666666667 0  0.3333333333333333 -0.8666666666666667 0  0.3999999999999999 -0.8666666666666667 0  0.4666666666666666 -0.8666666666666667 0  0.5333333333333334 -0.8666666666666667 0  0.6000000000000001 -0.8666666666666667 0  0.6666666666666667 -0.8666666666666667 0  0.7333333333333334 -0.8666666666666667 0  0.8 -0.8666666666666667 0  0.8666666666666667 -0.8666666666666667 0  0.9333333333333333 -0.8666666666666667 0  1 -0.8666666666666667 0  -1 -0.8 0  -0.9333333333333333 -0.8 0  -0.8666666666666667 -0.8 0  -0.8 -0.8 0  -0.7333333333333334 -0.8 0  -0.6666666666666667 -0.8 0  -0.6 -0.8 0  -0.5333333333333333 -0.8 0  -0.4666666666666667 -0.8 0  -0.4 -0.8 0  -0.3333333333333334 -0.8 0  -0.2666666666666667 -0.8 0  -0.2 -0.8 0  -0.1333333333333333 -0.8 0  -0.06666666666666665 -0.8 0  0 -0.8 0  0.06666666666666665 -0.8 0  0.1333333333333333 -0.8 0  0.2 -0.8 0  0.2666666666666666 -0.8 0  0.3333333333333333 -0.8 0  0.3999999999999999 -0.8 0  0.4666666666666666 -0.8 0  0.5333333333333334 -0.8 0  0.6000000000000001 -0.8 0  0.6666666666666667 -0.8 0  0.7333333333333334 -0.8 0  0.8 -0.8 0  0.8666666666666667 -0.8 0  0.9333333333333333 -0.8 0  1 -0.8 0  -1 -0.7333333333333334 0  -0.9333333333333333 -0.7333333333333334 0  -0.8666666666666667 -0.7333333333333334 0  -0.8 -0.7333333333333334 0  -0.7333333333333334 -0.7333333333333334 0  -0.6666666666666667 -0.7333333333333334 0  -0.6 -0.7333333333333334 0  -0.5333333333333333 -0.7333333333333334 0  -0.4666666666666667 -0.7333333333333334 0  -0.4 -0.7333333333333334 0  -0.3333333333333334 -0.7333333333333334 0  -0.2666666666666667 -0.7333333333333334 0  -0.2 -0.7333333333333334 0  -0.1333333333333333 -0.7333333333333334 0  -0.06666666666666665 -0.7333333333333334 0  0 -0.7333333333333334 0  0.06666666666666665 -0.7333333333333334 0  0.1333333333333333 -0.7333333333333334 0  0.2 -0.7333333333333334 0  0.2666666666666666 -0.7333333333333334 0  0.3333333333333333 -0.7333333333333334 0  0.3999999999999999 -0.7333333333333334 0  0.4666666666666666 -0.7333333333333334 0  0.5333333333333334 -0.7333333333333334 0  0.6000000000000001 -0.7333333333333334 0  0.6666666666666667 -0.7333333333333334 0  0.7333333333333334 -0.7333333333333334 0  0.8 -0.7333333333333334 0  0.8666666666666667 -0.7333333333333334 0  0.9333333333333333 -0.7333333333333334 0  1 -0.7333333333333334 0  -1 -0.6666666666666667 0  -0.9333333333333333 -0.6666666666666667 0  -0.8666666666666667 -0.6666666666666667 0  -0.8 -0.6666666666666667 0  -0.7333333333333334 -0.6666666666666667 0  -0.6666666666666667 -0.6666666666666667 0  -0.6 -0.6666666666666667 0  -0.5333333333333333 -0.6666666666666667 0  -0.4666666666666667 -0.6666666666666667 0  -0.4 -0.6666666666666667 0  -0.3333333333333334 -0.6666666666666667 0  -0.2666666666666667 -0.6666666666666667 0  -0.2 -0.6666666666666667 0  -0.1333333333333333 -0.6666666666666667 0  -0.06666666666666665 -0.6666666666666667 0  0 -0.6666666666666667 0  0.06666666666666665 -0.6666666666666667 0  0.1333333333333333 -0.6666666666666667 0  0.2 -0.6666666666666667 0  0.2666666666666666 -0.6666666666666667 0  0.3333333333333333 -0.6666666666666667 0  0.3999999999999999 -0.6666666666666667 0  0.4666666666666666 -0.6666666666666667 0  0.5333333333333334 -0.6666666666666667 0  0.6000000000000001 -0.6666666666666667 0  0.6666666666666667 -0.6666666666666667 0  0.7333333333333334 -0.6666666666666667 0  0.8 -0.6666666666666667 0  0.8666666666666667 -0.6666666666666667 0  0.9333333333333333 -0.6666666666666667 0  1 -0.6666666666666667 0  -1 -0.6 0  -0.9333333333333333 -0.6 0  -0.8666666666666667 -0.6 0  -0.8 -0.6 0  -0.7333333333333334 -0.6 0  -0.6666666666666667 -0.6 0  -0.6 -0.6 0  -0.5333333333333333 -0.6 0  -0.4666666666666667 -0.6 0  -0.4 -0.6 0  -0.3333333333333334 -0.6 0  -0.2666666666666667 -0.6 0  -0.2 -0.6 0  -0.1333333333333333 -0.6 0  -0.06666666666666665 -0.6 0  0 -0.6 0  0.06666666666666665 -0.6 0  0.1333333333333333 -0.6 0  0.2 -0.6 0  0.2666666666666666 -0.6 0  0.3333333333333333 -0.6 0  0.3999999999999999 -0.6 0  0.4666666666666666 -0.6 0  0.5333333333333334 -0.6 0  0.6000000000000001 -0.6 0  0.6666666666666667 -0.6 0  0.7333333333333334 -0.6 0  0.8 -0.6 0  0.8666666666666667 -0.6 0  0.9333333333333333 -0.6 0  1 -0.6 0  -1 -0.5333333333333333 0  -0.9333333333333333 -0.5333333333333333 0  -0.8666666666666667 -0.5333333333333333 0  -0.8 -0.5333333333333333 0  -0.7333333333333334 -0.5333333333333333 0  -0.6666666666666667 -0.5333333333333333 0  -0.6 -0.5333333333333333 0  -0.5333333333333333 -0.5333333333333333 0  -0.4666666666666667 -0.5333333333333333 0  -0.4 -0.5333333333333333 0  -0.3333333333333334 -0.5333333333333333 0  -0.2666666666666667 -0.5333333333333333 0  -0.2 -0.5333333333333333 0  -0.1333333333333333 -0.5333333333333333 0  -0.06666666666666665 -0.5333333333333333 0  0 -0.5333333333333333 0  0.06666666666666665 -0.5333333333333333 0  0.1333333333333333 -0.5333333333333333 0  0.2 -0.5333333333333333 0  0.2666666666666666 -0.5333333333333333 0  0.3333333333333333 -0.5333333333333333 0  0.3999999999999999 -0.5333333333333333 0  0.4666666666666666 -0.5333333333333333 0  0.5333333333333334 -0.5333333333333333 0  0.6000000000000001 -0.5333333333333333 0  0.6666666666666667 -0.5333333333333333 0  0.7333333333333334 -0.5333333333333333 0  0.8 -0.5333333333333333 0  0.8666666666666667 -0.5333333333333333 0  0.9333333333333333 -0.5333333333333333 0  1 -0.5333333333333333 0  -1 -0.4666666666666667 0  -0.9333333333333333 -0.4666666666666667 0  -0.8666666666666667 -0.4666666666666667 0  -0.8 -0.4666666666666667 0  -0.7333333333333334 -0.4666666666666667 0  -0.6666666666666667 -0.4666666666666667 0  -0.6 -0.4666666666666667 0  -0.5333333333333333 -0.4666666666666667 0  -0.4666666666666667 -0.4666666666666667 0  -0.4 -0.4666666666666667 0  -0.3333333333333334 -0.4666666666666667 0  -0.2666666666666667 -0.4666666666666667 0  -0.2 -0.4666666666666667 0  -0.1333333333333333 -0.4666666666666667 0  -0.06666666666666665 -0.4666666666666667 0  0 -0.4666666666666667 0  0.06666666666666665 -0.4666666666666667 0  0.1333333333333333 -0.4666666666666667 0  0.2 -0.4666666666666667 0  0.2666666666666666 -0.4666666666666667 0  0.3333333333333333 -0.4666666666666667 0  0.3999999999999999 -0.4666666666666667 0  0.4666666666666666 -0.4666666666666667 0  0.5333333333333334 -0.4666666666666667 0  0.6000000000000001 -0.4666666666666667 0  0.6666666666666667 -0.4666666666666667 0  0.7333333333333334 -0.4666666666666667 0  0.8 -0.4666666666666667 0  0.8666666666666667 -0.4666666666666667 0  0.9333333333333333 -0.4666666666666667 0  1 -0.4666666666666667 0  -1 -0.4 0  -0.9333333333333333 -0.4 0  -0.8666666666666667 -0.4 0  -0.8 -0.4 0  -0.7333333333333334 -0.4 0  -0.6666666666666667 -0.4 0  -0.6 -0.4 0  -0.5333333333333333 -0.4 0  -0.4666666666666667 -0.4 0  -0.4 -0.4 0  -0.3333333333333334 -0.4 0  -0.2666666666666667 -0.4 0  -0.2 -0.4 0  -0.1333333333333333 -0.4 0  -0.06666666666666665 -0.4 0  0 -0.4 0  0.06666666666666665 -0.4 0  0.1333333333333333 -0.4 0  0.2 -0.4 0  0.2666666666666666 -0.4 0  0.3333333333333333 -0.4 0  0.3999999999999999 -0.4 0  0.4666666666666666 -0.4 0  0.5333333333333334 -0.4 0  0.6000000000000001 -0.4 0  0.6666666666666667 -0.4 0  0.7333333333333334 -0.4 0 
[...]
<PointData  Scalars="f_24"> 
<DataArray  type="Float64"  Name="f_24"  format="ascii">0.0000000000000000e+00  0.0000000000000000e+00  0.0000000000000000e+00  0.0000000000000000e+00  0.0000000000000000e+00  0.0000000000000000e+00  0.0000000000000000e+00  0.0000000000000000e+00  0.0000000000000000e+00  0.0000000000000000e+00  0.0000000000000000e+00  0.0000000000000000e+00  0.0000000000000000e+00  0.0000000000000000e+00  0.0000000000000000e+00  0.0000000000000000e+00  0.0000000000000000e+00  0.0000000000000000e+00  0.0000000000000000e+00  0.0000000000000000e+00  0.0000000000000000e+00  0.0000000000000000e+00  0.0000000000000000e+00  0.0000000000000000e+00  0.0000000000000000e+00  0.0000000000000000e+00  0.0000000000000000e+00  0.0000000000000000e+00  0.0000000000000000e+00  0.0000000000000000e+00  1.0512749117040915e+01  0.0000000000000000e+00  5.1257881065779567e-02  9.9604974839856322e-02  1.4509727698974356e-01  1.8817608975317288e-01  2.2929829079053110e-01  2.6893662577263305e-01  3.0759458405454360e-01  3.4581930660621690e-01  3.8421573537711451e-01  4.2346160479400696e-01  4.6432560097792408e-01  5.0769169662573499e-01  5.5459306418074594e-01  6.0625970676296126e-01  6.6418524393845968e-01  7.3022037659955508e-01  8.0670405792011535e-01  8.9664879457200497e-01  1.0040049667962270e+00  1.1340423950737861e+00  1.2939090084570426e+00  1.4934629308994549e+00  1.7465387852798815e+00  2.0729308692150723e+00  2.5016226788545173e+00  3.0763249246700375e+00  3.8657691613363081e+00  4.9843014369500347e+00  6.6421232046001446e+00  9.1795897632713768e+00  0.0000000000000000e+00  9.8967561037030444e-02  1.8631492561639068e-01  2.5861905904930349e-01  3.1497441669936527e-01  3.5593227480012180e-01  3.8301801902583332e-01  3.9828058004882488e-01  4.0394105759028026e-01  4.0215091852094886e-01  3.9484813141645730e-01  3.8369328294763139e-01  3.7006285255758420e-01  3.5507989046764921e-01  3.3966810536310488e-01  3.2462193022194075e-01  3.1069231840061634e-01  2.9869585579151886e-01  2.8966484766580042e-01  2.8507126670171629e-01  2.8718283059603111e-01  2.9965396766713814e-01  3.2853428837101317e-01  3.8402455890742282e-01  4.8359163619540196e-01  6.5762685841187429e-01  9.6013219359154811e-01  1.4900158527058565e+00  2.4392391343160047e+00  4.2144959877086992e+00  7.9774374336838285e+00  0.0000000000000000e+00  1.4107583289207354e-01  2.5352122316526016e-01  3.2768300535165701e-01  3.6336841160391647e-01  3.6633801524967308e-01  3.4509762627797658e-01  3.0839933303279676e-01  2.6377094493418463e-01  2.1691857194988093e-01  1.7171332111516149e-01  1.3048100002579546e-01  9.4389729107672474e-02  6.3819061833637766e-02  3.8659723420810213e-02  1.8534094634592876e-02  2.9481389393963475e-03  -8.6061984260881533e-03  -1.6575427745711253e-02  -2.1267546822944440e-02  -2.2730204435091477e-02  -2.0502167959600637e-02  -1.3067627559763919e-02  3.3515668067288867e-03  3.7450524850106859e-02  1.0863243944038285e-01  2.5962192096442083e-01  5.8484255578347033e-01  1.2964278736903583e+00  2.9142152141299662e+00  6.8974146956905447e+00  0.0000000000000000e+00  1.7648342663615654e-01  2.9978981132614535e-01  3.5494790976884477e-01  3.4993184517412307e-01  3.0448230892923561e-01  2.3985402341997866e-01  1.7277626532943147e-01  1.1357960485998950e-01  6.6917901925294204e-02  3.3510123717740835e-02  1.1878992554945586e-02  -3.5108890611405466e-04  -5.6581155700431447e-03  -6.2242354705429326e-03  -3.7953088929932942e-03  3.1708106337943899e-04  5.1679679053385844e-03  1.0089614369967248e-02  1.4602425519104827e-02  1.8338261682648946e-02  2.0994553299381550e-02  2.2380086966490347e-02  2.2757382510274652e-02  2.4098707896139160e-02  3.3971464495085486e-02  7.6588547224606091e-02  2.2225469893732355e-01  6.6864481748375559e-01  1.9666405761261645e+00  5.9309556055665302e+00  0.0000000000000000e+00  2.0482773789636596e-01  3.2719926579286113e-01  3.5123392586224728e-01  3.0243440249250586e-01  2.2043052233010485e-01  1.3793925780054883e-01  7.2907661863783321e-02  3.0205162897632396e-02  6.9264797068944216e-03  -2.7132100185967649e-03  -4.3616434207241622e-03  -2.2634209278697675e-03  9.1703001715279198e-04  3.7893438100198647e-03  5.8214216745391331e-03  6.9817238282885241e-03  7.4847357306937114e-03  7.6284704231542122e-03  7.6954111239600966e-03  7.8876271892033192e-03  8.2697882153189850e-03  8.6976254580111382e-03  8.7369019381410267e-03  7.7780226253297835e-03  6.4132574385981174e-03  1.3090580136700204e-02  6.9461803799802213e-02  3.3148106522065351e-01  1.3449606352510832e+00  5.0698057084495165e+00  0.0000000000000000e+00  2.2631799900743058e-01  3.3961056949627255e-01  3.2894873453953943e-01  2.4438992314103963e-01  1.4503704364549044e-01  6.7357225539691937e-02  2.1388088885796599e-02  1.1975025936547693e-03  -3.7981168348352719e-03  -2.3578723995822206e-03  4.1114424160925117e-04  2.4249185011708157e-03  3.3561055252839225e-03  3.6067641455880890e-03  3.7180794504910091e-03  4.1222373761923958e-03  5.0876608815477219e-03  6.7439651067040919e-03  9.1205210141236982e-03  1.2166657967192214e-02  1.5741376743359181e-02  1.9564967698952315e-02  2.3105228487179781e-02  2.5315948551879474e-02  2.4401372335748045e-02  1.9934296697059737e-02  2.8723963611032705e-02  1.6050364548736951e-01  9.0000068398233268e-01  4.3060220383399592e+00  0.0000000000000000e+00  2.4154932912075772e-01  3.4129126504977902e-01  2.9838120872308738e-01  1.9002794299596454e-01  8.9320686033101795e-02  2.7563069613207637e-02  1.7833320579788152e-03  -3.5331731889648049e-03  -1.6257886868413383e-03  7.7749177458604575e-04  1.8467655225976461e-03  1.9215331592277295e-03  1.7358182549391807e-03  1.7493994313019434e-03  2.1010494370726595e-03  2.7619558498465373e-03  3.6832241170337257e-03  4.8795173762064192e-03  6.4513727275077350e-03  8.5576209994814405e-03  1.1342773095568727e-02  1.4827749120110185e-02  1.8778038838638520e-02  2.2524973154674173e-02  2.4427360240092639e-02  2.1180101383776608e-02  1.4611778775886576e-02  6.8026501647611412e-02  5.9300747530577491e-01  3.6319731181010444e+00  0.0000000000000000e+00  2.5132424667850778e-01  3.3608078378998768e-01  2.6656145794119335e-01  1.4551348245690052e-01  5.2758278667798392e-02  8.4793582007314360e-03  -3.0122911240004634e-03  -1.9709344433451684e-03  4.1968486399279634e-04  1.2494451308301469e-03  1.0814606090170165e-03  8.1226262484546661e-04  7.8122216881083709e-04  9.4482219335332283e-04  1.1933463909758553e-03  1.5090956531392276e-03  1.9903580328645026e-03  2.8273825514354618e-03  4.2786813427452882e-03  6.6476167300129714e-03  1.0226011746382997e-02  1.5159319638174188e-02  2.1240329230590861e-02  2.7700675705334712e-02  3.3014199263006513e-02  3.3692883919117844e-02  2.4163142264202155e-02  3.2808166308435992e-02  3.8247871045441562e-01  3.0403389594586883e+00  0.0000000000000000e+00  2.5651023944028800e-01  3.2702744529705075e-01  2.3757085825361074e-01  1.1201144774303354e-01  3.0652697523860045e-02  6.7655512009279944e-04  -2.8416011708749115e-03  -3.5309316370435819e-04  8.5645415814282271e-04  7.2248513343386241e-04  4.1116249016749906e-04  3.3394092153136176e-04  3.8470886867069738e-04  4.3170609375712426e-04  4.6905025068530584e-04  5.6706583606372732e-04  8.1579530648087249e-04  1.3279015666681942e-03  2.2878734248357583e-03  4.0091875303424540e-03  6.9422777636029857e-03  1.1553824186866318e-02  1.7988942587640874e-02  2.5640825465788299e-02  3.2864589230231257e-02  3.6698626336809828e-02  2.9749697432229830e-02  1.6798619661979985e-02  2.3472934314191804e-01  2.5241110630015231e+00  0.0000000000000000e+00  2.5794031775754916e-01  3.1633527001677325e-01  2.1335934348003416e-01  8.8335057909579059e-02  1.8104887738357816e-02  -1.8929196971633159e-03  -1.7614425516122724e-03  3.4250610320511748e-04  6.2605380954627507e-04  2.8479792060945753e-04  1.4376242357219438e-04  1.5825156334514070e-04  1.5882988497786761e-04  1.2937477414953891e-04  1.1885475633449084e-04  1.5682112944265573e-04  2.6327488273114315e-04  5.0387090511447654e-04  1.0570593107060895e-03  2.2892288293958015e-03  4.8106557120019371e-03  9.4036602069042796e-03  1.6672001310958237e-02  2.6264439801432560e-02  3.6322094782355444e-02  4.3379081044393801e-02  4.0860901179365638e-02  1.9129942891066346e-02  1.4102820496960072e-01  2.0765924181809226e+00  0.0000000000000000e+00  2.5635913171008884e-01  3.0546518220306179e-01  1.9455577742661126e-01  7.2594800825706934e-02  1.1414767718536157e-02  -2.3887146394160667e-03  -9.4265983338886615e-04  4.7324902449839097e-04  3.4369340704593315e-04  8.5476764515955323e-05  6.1509841649436584e-05  7.2451928543270486e-05  4.4127335543922508e-05  1.8600717185784222e-05  1.5297878774903116e-05  2.3455023014594159e-05  4.4707889731740998e-05  1.2113938420107080e-04  3.7491528135736462e-04  1.1043757327283169e-03  2.9265301156663629e-03  6.8421439476693260e-03  1.3919880784882132e-02  2.4427381963364130e-02  3.6391287483082152e-02  4.5918070632929658e-02  4.6355331286552462e-02  2.4148969867450628e-02  7.5855588147113490e-02  1.6913975033109740e+00  0.0000000000000000e+00  2.5239202075876566e-01  2.9529276480620881e-01  1.8107424552461324e-01  6.3015867032347336e-02  8.2067304105020097e-03  -2.2189797575771246e-03  -5.1248346518187641e-04  4.0498921851108663e-04  1.6931256842545080e-04  1.7914561160921918e-05  3.2403560283305992e-05  2.8656719014726720e-05  5.0046512566094283e-06  -2.5915638357249544e-06  -1.3179751084395392e-06  -3.3353680729907148e-06  -5.6730572260211585e-06  7.1512870125237039e-06  9.6489989655208590e-05  4.8585096646645419e-04  1.7759683506353274e-03  5.1322224107228677e-03  1.2118730263221191e-02  2.3595427941230013e-02  3.8051877535855087e-02  5.0223720401360923e-02  5.4118536680875948e-02  3.3565717698211914e-02  4.0155798090308018e-02  1.3624522855685026e+00  0.0000000000000000e+00  2.4655006143100217e-01  2.8625793343106759e-01  1.7250848374213920e-01  5.8239842291514854e-02  7.1376847283534861e-03  -1.9086701475557884e-03  -3.5413956019056376e-04  3.0801899798560222e-04  8.7747916140557323e-05  -1.6085235648604551e-06  1.7706056551882534e-05  1.0482118962097567e-05  -2.3584372363861870e-06  -2.1246973746011030e-06  -6.9921449668145132e-07  -2.4370006442267248e-06  -5.7492412336489076e-06  -1.2496888487103943e-05  -2.5599809986383629e-06  1.7177656293746024e-04  1.0331981703090016e-03  3.8198591395116948e-03  1.0435173344762618e-02  2.2461791683136671e-02  3.8626699255297055e-02  5.3404770905446958e-02  5.8649336647630598e-02  4.1926172142455032e-02  1.6812176699007128e-02  1.0839942209930546e+00  0.0000000000000000e+00  2.3922217260705853e-01  2.7849305678263359e-01  1.6834255636242787e-01  5.7375667154772908e-02  7.5714953024692009e-03  -1.5815836177127394e-03  -3.5853608963230750e-04  2.2837235678615635e-04  5.9437852140384758e-05  -7.2245977122965966e-06  8.6703238623859753e-06  4.7487232733766586e-06  -1.8743458173847015e-06  -7.4747424974504522e-07  1.7961764030791271e-07  2.8056584012349139e-08  -5.5841839825257512e-07  -7.6906434247358807e-06  -2.3531335037945221e-05  3.8460143201057621e-05  6.3280249884257328e-04  3.0265247829050785e-03  9.4904346503086167e-03  2.2099046355245157e-02  4.0277810298594882e-02  5.7441534391774914e-02  6.4755356796461092e-02  5.0254228094946833e-02  8.3691845461347711e-03  8.5057225448690543e-01  0.0000000000000000e+00  2.3071151605885404e-01  2.7191317404334120e-01  1.6805934339446260e-01  5.9940527041636306e-02  9.3532622213322418e-03  -1.1731632980388842e-03  -4.6211685067652054e-04  1.5834816029878496e-04  5.8887319088540957e-05  -7.4392115117149507e-06  2.0450569377041225e-06  3.2202690963325193e-06  -4.1978486463018296e-07  -3.4339840459973776e-07  4.5396941754336094e-08  2.9808104640498383e-07  1.4626002438032230e-06  -1.9842749802850055e-06  -2.4732180212569757e-05  -1.8326338912866281e-05  4.2269221938109338e-04  2.6246192698056452e-03  9.0802781372775494e-03  2.2439332108958793e-02  4.2153683490617516e-02  6.1739578048952123e-02  6.9509706278066644e-02  5.7255659345589731e-02  4.5664471094764344e-03  6.5704681981505719e-01  0.0000000000000000e+00  2.2121865138820979e-01  2.6627951987051057e-01  1.7114933907642091e-01  6.5772166641310220e-02  1.2678462622329502e-02  -4.8115934555268547e-04  -6.1997500869769202e-04  6.8459284915943773e-05  7.0367775416655662e-05  -5.0882688896268939e-07  -3.3258673749755268e-06  1.5066071472506115e-06  7.4356451131201547e-07  1.1644581880098669e-07  -2.0006728712296843e-07  -1.2041397929128744e-07  2.1767375697218170e-06  1.0777095442141081e-06  -2.5387535780484577e-05  -4.5158827662437694e-05  3.5883079789218562e-04  2.5967597523307187e-03  9.4548777583812350e-03  2.3796108073581939e-02  4.5345848457248532e-02  6.6718532080777271e-02  7.5384873484414819e-02  6.3226309569613615e-02  7.2433728243861354e-03  4.9858983960523928e-01  0.0000000000000000e+00  2.1089844643375605e-01  2.6124365951561113e-01  1.7710815630035320e-01  7.4929717275845673e-02  1.8045984926076144e-02  8.7612427038499200e-04  -7.4427982603931554e-04  -7.9583491789396519e-05  7.2101483647297497e-05  1.7544907657186207e-05  -3.8932656204205263e-06  -1.8886618455469830e-06  -4.1153383120634662e-08  -1.3000322977936305e-07  -6.6241055836253293e-07  -3.7663530581510189e-08  3.6909942636125593e-06  1.1166947248866071e-06  -3.5385304198310700e-05  -5.7714234133597686e-05  4.2642105432993363e-04  3.0282792151210469e-03  1.0711804826659578e-02  2.6540558754031777e-02  4.9701567947007863e-02  7.2620470103811688e-02  8.0853500059168568e-02  6.8224265979507329e-02  1.0896213027157138e-02  3.7068472534790814e-01  0.0000000000000000e+00  1.9982218021809395e-01  2.5636143670961731e-01  1.8535719729064548e-01  8.7572938208726941e-02  2.6226502381819419e-02  3.5637927757586618e-03  -5.9567261977362185e-04  -3.0040346803083921e-04  1.8677691077468310e-05  3.8032970289827046e-05  8.3317403222203604e-06  -1.4691169025867431e-06  -1.8785934039294946e-06  -1.3931925015214192e-06  -5.4006498830468079e-07  2.3560799130691878e-06  5.9631355450259254e-06  -7.6595659082457699e-06  -6.1080071127986304e-05  -4.2285606731085735e-05  7.3081220257425648e-04  4.1202568028877373e-03  1.3293730942588107e-02  3.0998931009738610e-02  5.5910346151578194e-02  7.9386658274645389e-02  8.6927466299574652e-02  7.2162694855705228e-02  1.6446535186502735e-02  2.6912637739624745e-01  0.0000000000000000e+00  1.8804696643349050e-01  2.5112695798654172e-01  1.9521165255445819e-01  1.0383323726459448e-01  3.8236269679245906e-02  8.6767078597844785e-03  4.1948088637591338e-04  -4.6867182607383351e-04  -1.4495024014803311e-04  1.1318518318656096e-05  2.4318106616150363e-05  1.1679598958246466e-05  4.8298817394141238e-06  3.3731830359247695e-06  4.9770598014574447e-06  6.7765357919680606e-06  -1.3011258929669260e-06  -4.1309796223111519e-05  -9.4543676907321664e-05  1.0797573243841853e-04  1.5410330919959844e-03  6.3856519130396040e-03  1.7750577972416873e-02  3.7824448669618878e-02  6.4059287896416808e-02  8.7270510350766745e-02  9.2747336224499002e-02  7.5286743908099460e-02  2.1300298919999683e-02  1.9002118496616802e-01  0.0000000000000000e+00  1.7556594017997526e-01  2.4495115730440048e-01  2.0575882992785913e-01  1.2359485257537783e-01  5.5185628201550749e-02  1.7844466804805822e-02  3.5499486224832705e-03  -2.4450917503245862e-05  -3.3318194329624070e-04  -1.3911825166916297e-04  -2.6816793985388947e-05  4.9980441320224454e-06  9.2068545492609565e-06  7.4788547122424510e-06  2.5848055884149942e-06  -1.2560390625875001e-05  -4.9665133961654899e-05  -9.8976844524423208e-05  -1.5264712885919033e-05  7.4229248175298687e-04  3.5270420448772258e-03  1.0703779617707956e-02  2.5051680043405924e-02  4.7578720316088251e-02  7.4530957939151488e-02  9.5960067105671329e-02  9.8448320736093900e-02  7.7342755137902369e-02  2.5805315839839107e-02  1.2978702613630766e-01  0.0000000000000000e+00  1.6236714565971158e-01  2.3721565465230599e-01  2.1584049603651065e-01  1.4629233005417605e-01  7.8024901143943823e-02  3.3216291752636747e-02  1.1058815551478906e-02  2.5913230057755380e-03  1.7913545520500040e-04  -2.3131716171256452e-04  -1.8774124797879568e-04  -1.1269048922085258e-04  -7.2732470770348344e-05  -6.1747580507362968e-05  -7.1281401497572450e-05  -9.4224706233584645e-05  -9.8620690577452442e-05  4.4762767761857578e-05  7.2380097260612165e-04  2.8370901945653873e-03  8.0308059892921710e-03  1.8570179228345352e-02  3.6355227970489387e-02  6.0933542842486137e-02  8.7181817803929182e-02  1.0521571225074695e-01  1.0331865060706093e-01  7.8369950942149574e-02  2.8947177647614623e-02  8.5153267848031455e-02  0.0000000000000000e+00  1.4840943923165006e-01  2.2723018388597072e-01  2.2393789799570682e-01  1.7055784916505298e-01  1.0696236519342484e-01  5.7005930756908220e-02  2.6299581407240619e-02  1.0613261821502103e-02  3.7484284606202280e-03  1.1286913760191750e-03  2.4985098922368964e-04  -5.8634429754503541e-06  -6.2283627640896883e-05  -5.4150045621244251e-05  -1.1766141346948791e-06  1.4782996308122597e-04  5.4647272937936929e-04  1.5436647257168132e-03  3.8305545989883501e-03  8.5762210881606266e-03  1.7418609136589620e-02  3.1998977200153766e-02  5.2920511825391078e-02  7.8087869645134603e-02  1.0158467921901330e-01  1.1419779499039923e-01  1.0690439750834811e-01  7.8037629919186655e-02  3.0847946679708985e-02  5.3160765905431624e-02  0.0000000000000000e+00  1.3361605882605504e-01  2.1431515484577590e-01  2.2822429847900957e-01  1.9402573031169676e-01  1.4078003519276833e-01  9.0526037707652884e-02  5.3080232196237788e-02  2.9161100262978044e-02  1.5476285502755765e-02  8.2422789568695025e-03  4.6253080842838731e-03  2.9027559346732727e-03  2.1655147919201977e-03  2.0004532749535115e-03  2.2886965319603987e-03  3.1206352616058859e-03  4.7940465949326896e-03  7.8597607220161417e-03  1.3165006550242787e-02  2.1814693262952909e-02  3.4926465272669065e-02  5.3061291178847114e-02  7.5329688281680490e-02  9.8445873234362644e-02  1.1643961894147199e-01  1.2178284117937573e-01  1.0835272006606077e-01  7.6152185498417985e-02  3.1241635039665202e-02  3.1161864975327427e-02  0.0000000000000000e+00  1.1795442703479846e-01  1.9777631248538990e-01  2.2655932524714595e-01  2.1305727896188856e-01  1.7585391683226925e-01  1.3234005025590750e-01  9.3451480681120400e-02  6.3559408709569082e-02  4.2754243427982820e-02  2.9249966893787283e-02  2.0948063863776588e-02  1.6140631873961767e-02  1.3677708478522043e-02  1.2907022773697194e-02  1.3565806391879516e-02  1.5696032935731814e-02  1.9590349778794716e-02  2.5744593781121993e-02  3.4773979849092106e-02  4.7236472805682363e-02  6.3321744409736605e-02  8.2379600503481101e-02  1.0243157565017216e-01  1.1981545929722691e-01  1.2953042714132462e-01  1.2628515024607001e-01  1.0682431064325747e-01  7.2363281964693479e-02  3.0223971108084773e-02  1.6820398587265448e-02  0.0000000000000000e+00  1.0126086900507281e-01  1.7696993951294604e-01  2.1667517510914600e-01  2.2294027223234472e-01  2.0569566441543952e-01  1.7638917856938732e-01  1.4421820301246516e-01  1.1485749602751651e-01  9.0859084717151178e-02  7.2708275534216646e-02  5.9847904394199271e-02  5.1391541495850401e-02  4.6513228874149798e-02  4.4608279884009970e-02  4.5324101577020472e-02  4.8527956698997357e-02  5.4241337818350867e-02  6.2546253892735396e-02  7.3452759153059835e-02  8.6721580168458948e-02  1.0163903990157590e-01  1.1679385495573091e-01  1.2992399671082580e-01  1.3797816905197008e-01  1.3755856870706604e-01  1.2571864484163098e-01  1.0137323134624925e-01  6.6393267895955219e-02  2.7829868231263231e-02  8.1116891335192166e-03  0.0000000000000000e+00  8.3563662822903131e-02  1.5141114403985539e-01  1.9645738089695455e-01  2.1829542382933584e-01  2.2100865377580051e-01  2.1059895344214993e-01  1.9298976473955806e-01  1.7290804986743663e-01  1.5355042953541026e-01  1.3674311147231336e-01  1.2330911490402419e-01  1.1344809530006594e-01  1.0703412171444314e-01  1.0380851788813968e-01  1.0347979281779417e-01  1.0575447979542595e-01  1.1031899898741784e-01  1.1678801114882846e-01  1.2463