<?xml version="1.0"?>
<VTKFile type="UnstructuredGrid"  version="0.1"  >
<UnstructuredGrid>
<Piece  NumberOfPoints="961" NumberOfCells="1800">
<Points>
<DataArray  type="Float64"  NumberOfComponents="3"  format="ascii">-1 -1 0  -0.9333333333333333 -1 0  -0.8666666666666667 -1 0  -0.8 -1 0  -0.7333333333333334 -1 0  -0.6666666666666667 -1 0  -0.6 -1 0  -0.5333333333333333 -1 0  -0.4666666666666667 -1 0  -0.4 -1 0  -0.3333333333333334 -1 0  -0.2666666666666667 -1 0  -0.2 -1 0  -0.1333333333333333 -1 0  -0.06666666666666665 -1 0  0 -1 0  0.06666666666666665 -1 0  0.1333333333333333 -1 0  0.2 -1 0  0.2666666666666666 -1 0  0.3333333333333333 -1 0  0.3999999999999999 -1 0  0.4666666666666666 -1 0  0.5333333333333334 -1 0  0.6000000000000001 -1 0  0.6666666666666667 -1 0  0.7333333333333334 -1 0  0.8 -1 0  0.8666666666666667 -1 0  0.9333333333333333 -1 0  1 -1 0  -1 -0.9333333333333333 0  -0.9333333333333333 -0.9333333333333333 0  -0.8666666666666667 -0.9333333333333333 0  -0.8 -0.9333333333333333 0  -0.7333333333333334 -0.9333333333333333 0  -0.6666666666666667 -0.9333333333333333 0  -0.6 -0.9333333333333333 0  -0.5333333333333333 -0.9333333333333333 0  -0.4666666666666667 -0.9333333333333333 0  -0.4 -0.9333333333333333 0  -0.3333333333333334 -0.9333333333333333 0  -0.2666666666666667 -0.9333333333333333 0  -0.2 -0.9333333333333333 0  -0.1333333333333333 -0.9333333333333333 0  -0.06666666666666665 -0.9333333333333333 0  0 -0.9333333333333333 0  0.06666666666666665 -0.9333333333333333 0  0.1333333333333333 -0.9333333333333333 0  0.2 -0.9333333333333333 0  0.2666666666666666 -0.9333333333333333 0  0.3333333333333333 -0.9333333333333333 0  0.3999999999999999 -0.9333333333333333 0  0.4666666666666666 -0.9333333333333333 0  0.5333333333333334 -0.9333333333333333 0  0.6000000000000001 -0.9333333333333333 0  0.6666666666666667 -0.9333333333333333 0  0.7333333333333334 -0.9333333333333333 0  0.8 -0.9333333333333333 0  0.8666666666666667 -0.9333333333333333 0  0.9333333333333333 -0.9333333333333333 0  1 -0.9333333333333333 0  -1 -0.8666666666666667 0  -0.9333333333333333 -0.8666666666666667 0  -0.8666666666666667 -0.8666666666666667 0  -0.8 -0.8666666666666667 0  -0.7333333333333334 -0.8666666666666667 0  -0.6666666666666667 -0.8666666666666667 0  -0.6 -0.8666666666666667 0  -0.5333333333333333 -0.8666666666666667 0  -0.4666666666666667 -0.8666666666666667 0  -0.4 -0.8666666666666667 0  -0.3333333333333334 -0.8666666666666667 0  -0.2666666666666667 -0.8666666666666667 0  -0.2 -0.8666666666666667 0  -0.1333333333333333 -0.8666666666666667 0  -0.06666666666666665 -0.8666666666666667 0  0 -0.8666666666666667 0  0.06666666666666665 -0.8666666666666667 0  0.1333333333333333 -0.8666666666666667 0  0.2 -0.8666666666666667 0  0.2666666666666666 -0.8666666666666667 0  0.3333333333333333 -0.8666666666666667 0  0.3999999999999999 -0.8666666666666667 0  0.4666666666666666 -0.8666666666666667 0  0.5333333333333334 -0.8666666666666667 0  0.6000000000000001 -0.8666666666666667 0  0.6666666666666667 -0.8666666666666667 0  0.7333333333333334 -0.8666666666666667 0  0.8 -0.8666666666666667 0  0.8666666666666667 -0.8666666666666667 0  0.9333333333333333 -0.8666666666666667 0  1 -0.8666666666666667 0  -1 -0.8 0  -0.9333333333333333 -0.8 0  -0.8666666666666667 -0.8 0  -0.8 -0.8 0  -0.7333333333333334 -0.8 0  -0.6666666666666667 -0.8 0  -0.6 -0.8 0  -0.5333333333333333 -0.8 0  -0.4666666666666667 -0.8 0  -0.4 -0.8 0  -0.3333333333333334 -0.8 0  -0.2666666666666667 -0.8 0  -0.2 -0.8 0  -0.1333333333333333 -0.8 0  -0.06666666666666665 -0.8 0  0 -0.8 0  0.06666666666666665 -0.8 0  0.1333333333333333 -0.8 0  0.2 -0.8 0  0.2666666666666666 -0.8 0  0.3333333333333333 -0.8 0  0.3999999999999999 -0.8 0  0.4666666666666666 -0.8 0  0.5333333333333334 -0.8 0  0.6000000000000001 -0.8 0  0.6666666666666667 -0.8 0  0.7333333333333334 -0.8 0  0.8 -0.8 0  0.8666666666666667 -0.8 0  0.9333333333333333 -0.8 0  1 -0.8 0  -1 -0.7333333333333334 0  -0.9333333333333333 -0.7333333333333334 0  -0.8666666666666667 -0.7333333333333334 0  -0.8 -0.7333333333333334 0  -0.7333333333333334 -0.7333333333333334 0  -0.6666666666666667 -0.7333333333333334 0  -0.6 -0.7333333333333334 0  -0.5333333333333333 -0.7333333333333334 0  -0.4666666666666667 -0.7333333333333334 0  -0.4 -0.7333333333333334 0  -0.3333333333333334 -0.7333333333333334 0  -0.2666666666666667 -0.7333333333333334 0  -0.2 -0.7333333333333334 0  -0.1333333333333333 -0.7333333333333334 0  -0.06666666666666665 -0.7333333333333334 0  0 -0.7333333333333334 0  0.06666666666666665 -0.7333333333333334 0  0.1333333333333333 -0.7333333333333334 0  0.2 -0.7333333333333334 0  0.2666666666666666 -0.7333333333333334 0  0.3333333333333333 -0.7333333333333334 0  0.3999999999999999 -0.7333333333333334 0  0.4666666666666666 -0.7333333333333334 0  0.5333333333333334 -0.7333333333333334 0  0.6000000000000001 -0.7333333333333334 0  0.6666666666666667 -0.7333333333333334 0  0.7333333333333334 -0.7333333333333334 0  0.8 -0.7333333333333334 0  0.8666666666666667 -0.7333333333333334 0  0.9333333333333333 -0.7333333333333334 0  1 -0.7333333333333334 0  -1 -0.6666666666666667 0  -0.9333333333333333 -0.6666666666666667 0  -0.8666666666666667 -0.6666666666666667 0  -0.8 -0.6666666666666667 0  -0.7333333333333334 -0.6666666666666667 0  -0.6666666666666667 -0.6666666666666667 0  -0.6 -0.6666666666666667 0  -0.5333333333333333 -0.6666666666666667 0  -0.4666666666666667 -0.6666666666666667 0  -0.4 -0.6666666666666667 0  -0.3333333333333334 -0.6666666666666667 0  -0.2666666666666667 -0.6666666666666667 0  -0.2 -0.6666666666666667 0  -0.1333333333333333 -0.6666666666666667 0  -0.06666666666666665 -0.6666666666666667 0  0 -0.6666666666666667 0  0.06666666666666665 -0.6666666666666667 0  0.1333333333333333 -0.6666666666666667 0  0.2 -0.6666666666666667 0  0.2666666666666666 -0.6666666666666667 0  0.3333333333333333 -0.6666666666666667 0  0.3999999999999999 -0.6666666666666667 0  0.4666666666666666 -0.6666666666666667 0  0.5333333333333334 -0.6666666666666667 0  0.6000000000000001 -0.6666666666666667 0  0.6666666666666667 -0.6666666666666667 0  0.7333333333333334 -0.6666666666666667 0  0.8 -0.6666666666666667 0  0.8666666666666667 -0.6666666666666667 0  0.9333333333333333 -0.6666666666666667 0  1 -0.6666666666666667 0  -1 -0.6 0  -0.9333333333333333 -0.6 0  -0.8666666666666667 -0.6 0  -0.8 -0.6 0  -0.7333333333333334 -0.6 0  -0.6666666666666667 -0.6 0  -0.6 -0.6 0  -0.5333333333333333 -0.6 0  -0.4666666666666667 -0.6 0  -0.4 -0.6 0  -0.3333333333333334 -0.6 0  -0.2666666666666667 -0.6 0  -0.2 -0.6 0  -0.1333333333333333 -0.6 0  -0.06666666666666665 -0.6 0  0 -0.6 0  0.06666666666666665 -0.6 0  0.1333333333333333 -0.6 0  0.2 -0.6 0  0.2666666666666666 -0.6 0  0.3333333333333333 -0.6 0  0.3999999999999999 -0.6 0  0.4666666666666666 -0.6 0  0.5333333333333334 -0.6 0  0.6000000000000001 -0.6 0  0.6666666666666667 -0.6 0  0.7333333333333334 -0.6 0  0.8 -0.6 0  0.8666666666666667 -0.6 0  0.9333333333333333 -0.6 0  1 -0.6 0  -1 -0.5333333333333333 0  -0.9333333333333333 -0.5333333333333333 0  -0.8666666666666667 -0.5333333333333333 0  -0.8 -0.5333333333333333 0  -0.7333333333333334 -0.5333333333333333 0  -0.6666666666666667 -0.5333333333333333 0  -0.6 -0.5333333333333333 0  -0.5333333333333333 -0.5333333333333333 0  -0.4666666666666667 -0.5333333333333333 0  -0.4 -0.5333333333333333 0  -0.3333333333333334 -0.5333333333333333 0  -0.2666666666666667 -0.5333333333333333 0  -0.2 -0.5333333333333333 0  -0.1333333333333333 -0.5333333333333333 0  -0.06666666666666665 -0.5333333333333333 0  0 -0.5333333333333333 0  0.06666666666666665 -0.5333333333333333 0  0.1333333333333333 -0.5333333333333333 0  0.2 -0.5333333333333333 0  0.2666666666666666 -0.5333333333333333 0  0.3333333333333333 -0.5333333333333333 0  0.3999999999999999 -0.5333333333333333 0  0.4666666666666666 -0.5333333333333333 0  0.5333333333333334 -0.5333333333333333 0  0.6000000000000001 -0.5333333333333333 0  0.6666666666666667 -0.5333333333333333 0  0.7333333333333334 -0.5333333333333333 0  0.8 -0.5333333333333333 0  0.8666666666666667 -0.5333333333333333 0  0.9333333333333333 -0.5333333333333333 0  1 -0.5333333333333333 0  -1 -0.4666666666666667 0  -0.9333333333333333 -0.4666666666666667 0  -0.8666666666666667 -0.4666666666666667 0  -0.8 -0.4666666666666667 0  -0.7333333333333334 -0.4666666666666667 0  -0.6666666666666667 -0.4666666666666667 0  -0.6 -0.4666666666666667 0  -0.5333333333333333 -0.4666666666666667 0  -0.4666666666666667 -0.4666666666666667 0  -0.4 -0.4666666666666667 0  -0.3333333333333334 -0.4666666666666667 0  -0.2666666666666667 -0.4666666666666667 0  -0.2 -0.4666666666666667 0  -0.1333333333333333 -0.4666666666666667 0  -0.06666666666666665 -0.4666666666666667 0  0 -0.4666666666666667 0  0.06666666666666665 -0.4666666666666667 0  0.1333333333333333 -0.4666666666666667 0  0.2 -0.4666666666666667 0  0.2666666666666666 -0.4666666666666667 0  0.3333333333333333 -0.4666666666666667 0  0.3999999999999999 -0.4666666666666667 0  0.4666666666666666 -0.4666666666666667 0  0.5333333333333334 -0.4666666666666667 0  0.6000000000000001 -0.4666666666666667 0  0.6666666666666667 -0.4666666666666667 0  0.7333333333333334 -0.4666666666666667 0  0.8 -0.4666666666666667 0  0.8666666666666667 -0.4666666666666667 0  0.9333333333333333 -0.4666666666666667 0  1 -0.4666666666666667 0  -1 -0.4 0  -0.9333333333333333 -0.4 0  -0.8666666666666667 -0.4 0  -0.8 -0.4 0  -0.7333333333333334 -0.4 0  -0.6666666666666667 -0.4 0  -0.6 -0.4 0  -0.5333333333333333 -0.4 0  -0.4666666666666667 -0.4 0  -0.4 -0.4 0  -0.3333333333333334 -0.4 0  -0.2666666666666667 -0.4 0  -0.2 -0.4 0  -0.1333333333333333 -0.4 0  -0.06666666666666665 -0.4 0  0 -0.4 0  0.06666666666666665 -0.4 0  0.1333333333333333 -0.4 0  0.2 -0.4 0  0.2666666666666666 -0.4 0  0.3333333333333333 -0.4 0  0.3999999999999999 -0.4 0  0.4666666666666666 -0.4 0  0.5333333333333334 -0.4 0  0.6000000000000001 -0.4 0  0.6666666666666667 -0.4 0  0.7333333333333334 -0.4 0 
[...]
<PointData  Scalars="f_24"> 
<DataArray  type="Float64"  Name="f_24"  format="ascii">0.0000000000000000e+00  0.0000000000000000e+00  0.0000000000000000e+00  0.0000000000000000e+00  0.0000000000000000e+00  0.0000000000000000e+00  0.0000000000000000e+00  0.0000000000000000e+00  0.0000000000000000e+00  0.0000000000000000e+00  0.0000000000000000e+00  0.0000000000000000e+00  0.0000000000000000e+00  0.0000000000000000e+00  0.0000000000000000e+00  0.0000000000000000e+00  0.0000000000000000e+00  0.0000000000000000e+00  0.0000000000000000e+00  0.0000000000000000e+00  0.0000000000000000e+00  0.0000000000000000e+00  0.0000000000000000e+00  0.0000000000000000e+00  0.0000000000000000e+00  0.0000000000000000e+00  0.0000000000000000e+00  0.0000000000000000e+00  0.0000000000000000e+00  0.0000000000000000e+00  1.1331525655484803e+01  0.0000000000000000e+00  5.5234207163244502e-02  1.0735302333310842e-01  1.5638092495967357e-01  2.0279879552955438e-01  2.4709946131223620e-01  2.8979194487376575e-01  3.3141865003663412e-01  3.7256923994102598e-01  4.1389594142402447e-01  4.5612974875803058e-01  5.0010001376804070e-01  5.4676070500070306e-01  5.9722697604551822e-01  6.5282651815478798e-01  7.1517154103236324e-01  7.8625950261164279e-01  8.6861446387463070e-01  9.6548678069104676e-01  1.0811379603224778e+00  1.2212518949322841e+00  1.3935369933085673e+00  1.6086230311196328e+00  1.8814260398294396e+00  2.2332858916347571e+00  2.6954472727304024e+00  3.3150288768989467e+00  4.1661184589836004e+00  5.3719698479051061e+00  7.1591552984295577e+00  9.8945343174530205e+00  0.0000000000000000e+00  1.0663985812958662e-01  2.0080715420039613e-01  2.7872853792762636e-01  3.3944138550148539e-01  3.8353900288290760e-01  4.1266278202957796e-01  4.2901871194117308e-01  4.3499847336163078e-01  4.3291921275266076e-01  4.2486858375782383e-01  4.1263605963318384e-01  3.9770587920676476e-01  3.8129033730207335e-01  3.6438833921722202e-01  3.4786120689961175e-01  3.3252543845829469e-01  3.1927056139246168e-01  3.0922106267344768e-01  3.0397778224423844e-01  3.0600152722249357e-01  3.1924963768315129e-01  3.5026235611380996e-01  4.1005475643394307e-01  5.1747341338408637e-01  7.0529466286358355e-01  1.0317422716627764e+00  1.6034407714784877e+00  2.6273103660924617e+00  4.5417186023527902e+00  8.5987533744415643e+00  0.0000000000000000e+00  1.5200434482329828e-01  2.7323846104856980e-01  3.5315730420034819e-01  3.9157549329505326e-01  3.9469908498337497e-01  3.7169068166368113e-01  3.3197857182919577e-01  2.8367170231365790e-01  2.3291637579845825e-01  1.8388172773773132e-01  1.3907203201549970e-01  9.9744548692757826e-02  6.6307606311570719e-02  3.8644209473546569e-02  1.6350556736558025e-02  -1.0989476652071728e-03  -1.4239731675085722e-02  -2.3533833916882432e-02  -2.9285279304803596e-02  -3.1507648164153607e-02  -2.9656200780240699e-02  -2.2041354337237053e-02  -4.5304921818740372e-03  3.2308027269855877e-02  1.0944085569686471e-01  2.7295998658456755e-01  6.2466735735022094e-01  1.3932259772826165e+00  3.1389453085785237e+00  7.4346139825635795e+00  0.0000000000000000e+00  1.9014258138075474e-01  3.2310051491379876e-01  3.8253347955111644e-01  3.7706722649166291e-01  3.2797608966355635e-01  2.5816330524735265e-01  1.8565518940926484e-01  1.2158225749136635e-01  7.0957675674639412e-02  3.4553448737237827e-02  1.0773707605571448e-02  -2.9472469178155971e-03  -9.2874291709620395e-03  -1.0607669627812018e-02  -8.7990838761940280e-03  -5.2828918444310959e-03  -1.0795591257940652e-03  3.1002196336996708e-03  6.7662208912217595e-03  9.5732487133758735e-03  1.1277569654748198e-02  1.1788030022079335e-02  1.1529455276843978e-02  1.2781117057494072e-02  2.3840523572578019e-02  7.0907554953594895e-02  2.2980570425210362e-01  7.1358979377835097e-01  2.1159827249472625e+00  6.3928830468405238e+00  0.0000000000000000e+00  2.2066325424479374e-01  3.5263309323750924e-01  3.7852044084533421e-01  3.2585119977406612e-01  2.3734149460753040e-01  1.4825172266402353e-01  7.7924983438702092e-02  3.1610856995058341e-02  6.1801606709920168e-03  -4.6015198231177286e-03  -6.8243552960609672e-03  -5.0718056593236985e-03  -2.2310121309508917e-03  1.7667335103951250e-04  1.5479438878074779e-03  1.8138898853072177e-03  1.1699513520844764e-03  -9.1208892704928749e-05  -1.6734392463205374e-03  -3.3285520628691255e-03  -4.8957226832690940e-03  -6.3589747209145692e-03  -7.9281062020249270e-03  -9.9355210339854855e-03  -1.1407932309833849e-02  -2.9785862719600431e-03  6.0356641296687233e-02  3.4663199133205602e-01  1.4439804198974133e+00  5.4646632212021631e+00  0.0000000000000000e+00  2.4379128471242240e-01  3.6599705897880019e-01  3.5449261508430341e-01  2.6327427432007638e-01  1.5605758861582084e-01  7.2150621205787760e-02  2.2379329249281047e-02  3.5887679497910533e-04  -5.3091173667424371e-03  -4.0608506516163377e-03  -1.4030648193483989e-03  4.0663841829686385e-04  9.9372127243999497e-04  7.5822347849296295e-04  2.3732881613168922e-04  -1.6318805114895899e-04  -2.2754359296015193e-04  1.0182153074211429e-04  7.7955224533859978e-04  1.7069572138635894e-03  2.7657793252205301e-03  3.8233611890839086e-03  4.6607643810384200e-03  4.6985925859468680e-03  2.6642247462559184e-03  -1.3074402906146005e-03  1.1203159586950054e-02  1.5835962803662182e-01  9.6221895699506355e-01  4.6413929084865764e+00  0.0000000000000000e+00  2.6016733689275084e-01  3.6779129831582591e-01  3.2154020514751253e-01  2.0467484580084605e-01  9.6002337050452705e-02  2.9272332963930833e-02  1.2976500993609279e-03  -4.6282183104977047e-03  -2.7621384388384265e-03  -3.5051388828087751e-04  6.3035709024928906e-04  5.3234809947632961e-04  1.2289847507798533e-04  -1.3691230934522453e-04  -1.4563088756703655e-04  -1.6219196377286350e-06  1.4882190856695991e-04  1.9606863552721457e-04  9.4313631117509954e-05  -1.4421282332883253e-04  -4.6771262473077521e-04  -7.9818594411523508e-04  -1.0404547235300344e-03  -1.1748311681180918e-03  -1.8799721673254425e-03  -5.5647407899549845e-03  -9.5318993299246882e-03  5.4362469535601941e-02  6.2897414759193959e-01  3.9148462604401506e+00  0.0000000000000000e+00  2.7065563460048869e-01  3.6215278751362123e-01  2.8724046199818060e-01  1.5669737827180427e-01  5.6609154541261489e-02  8.7458416988534897e-03  -3.7797184049726601e-03  -2.7803762379774908e-03  -2.9849442874091539e-04  5.3039792089307257e-04  3.0502950309195650e-04  -2.4114890831945537e-05  -1.1212891541338849e-04  -3.2461612211525303e-05  6.0654749412522367e-05  9.3896931629040172e-05  8.6690523956754894e-05  1.0670463785806284e-04  2.2712231180080329e-04  5.0199686207801574e-04  9.5461232428649498e-04  1.5673288483266828e-03  2.2933582138158167e-03  3.0981259916187764e-03  3.8529278060647548e-03  2.7138350977467390e-03  -4.8582387347479898e-03  1.1844214428669154e-02  3.9956700733026984e-01  3.2771331777175914e+00  0.0000000000000000e+00  2.7618991260463488e-01  3.5236547503361526e-01  2.5599154136956365e-01  1.2059595250160052e-01  3.2810049141932474e-02  3.9484306256805385e-04  -3.4878083578986463e-03  -8.6580481546890732e-04  4.1462678688126698e-04  2.7837981012133404e-04  -3.0007280650598677e-05  -8.2519658246098457e-05  -8.3150859672958320e-06  3.5811406161880387e-05  2.4973144706405952e-05  3.4868932556609709e-06  7.9824635849841865e-06  4.3586203628820449e-05  9.8778866585457265e-05  1.6984374511593893e-04  2.7430644593237185e-04  4.4307664255402717e-04  6.7135907435967538e-04  9.3680825688850593e-04  1.2813377329443708e-03  1.3023690406562161e-03  -4.4176148671937216e-03  -1.0124379610176587e-02  2.3773337813178902e-01  2.7206993098819008e+00  0.0000000000000000e+00  2.7766719464317935e-01  3.4080243303756363e-01  2.2989381189678612e-01  9.5089156267026340e-02  1.9318910122631271e-02  -2.3109547976053347e-03  -2.2198443948238584e-03  3.1593070307188721e-05  3.5510352053431460e-04  2.8111595575462749e-05  -7.4139694169872059e-05  -1.2470752709595522e-05  2.2586493642933598e-05  8.8858778235664444e-06  -5.5966274558815479e-06  -7.6187409298375868e-07  1.3734346108535191e-05  3.1458209755855957e-05  7.1584222108893165e-05  1.8475092474381098e-04  4.4905083620181855e-04  9.4597046948305885e-04  1.7182996422007060e-03  2.6319204203334688e-03  3.5736983720341185e-03  4.4545871169469056e-03  2.1126851581625902e-03  -1.2404232894763233e-02  1.3411031642415913e-01  2.2383260554044067e+00  0.0000000000000000e+00  2.7588801073095170e-01  3.2903518419603406e-01  2.0962266692356682e-01  7.8138171007614193e-02  1.2142645706888527e-02  -2.7856497766810865e-03  -1.2495195321562454e-03  2.8513042828967746e-04  1.7968810908847423e-04  -5.2680800179271046e-05  -3.3337245314491488e-05  1.4466162593680502e-05  8.4908309691091437e-06  -4.9408875140825372e-06  -2.9774870013417537e-06  1.7467458847197228e-06  5.8104071822861369e-07  6.3616343237278657e-08  1.6186580976353303e-05  7.8846157991852494e-05  2.4786354062135104e-04  6.2218970167814548e-04  1.2748164819078112e-03  2.1796770195293110e-03  2.9237615046960180e-03  3.6841419544408087e-03  2.7700781173067173e-03  -1.1803372965293733e-02  6.1234841612649270e-02  1.8231305616647344e+00  0.0000000000000000e+00  2.7152528884281696e-01  3.1800353626044853e-01  1.9508244509731329e-01  6.7827985008711900e-02  8.7171678882456659e-03  -2.5515086218535956e-03  -7.1774908797855007e-04  2.9016016261803658e-04  7.1586060547001049e-05  -5.3160184635908477e-05  -5.3769252124104304e-06  1.2214678012627503e-05  -1.0236946234944757e-06  -3.3408422885728962e-06  8.1908723106785165e-07  3.5154884630189466e-07  -2.1085067816485729e-06  -2.3890176628508584e-06  4.4847056495776257e-06  4.6418511579324538e-05  2.1120238952944683e-04  6.5429911158640776e-04  1.5613052857564231e-03  2.9022506043518801e-03  4.3754848709305679e-03  5.2186884461983794e-03  6.0609591415676381e-03  -6.4214034434017624e-03  2.0171918784768008e-02  1.4685657249508304e+00  0.0000000000000000e+00  2.6512752266641693e-01  3.0817561039653973e-01  1.8583070583216912e-01  6.2691984325823277e-02  7.5929420289328258e-03  -2.1758875366869601e-03  -4.9726676281604558e-04  2.3722193031982768e-04  2.9885002418849547e-05  -3.8287370873132241e-05  2.9424079068165356e-06  6.5044109143871706e-06  -2.4639098879184931e-06  -8.6711751808953927e-07  9.5184821402579991e-07  -2.2212747165726578e-07  -9.0998839050892216e-07  -2.8270831931288853e-06  -6.8389736898589141e-06  9.5774977002186030e-06  1.3160160322909023e-04  5.5483298342601684e-04  1.4958289767169788e-03  3.0671120945614150e-03  4.7140101491963465e-03  5.7511772638040156e-03  6.0307875137253445e-03  -2.0838613785109194e-03  -7.4809390295994347e-03  1.1684201904589460e+00  0.0000000000000000e+00  2.5711054350739465e-01  2.9968890332778253e-01  1.8130433055077078e-01  6.1768195392232314e-02  8.0829646988172486e-03  -1.7913371256917487e-03  -4.6705617046456226e-04  1.8405140335542885e-04  2.5057728047820653e-05  -2.7364692213601008e-05  2.2632990023414453e-06  3.8465109324762432e-06  -1.5093803604324590e-06  -2.8026342346312567e-07  3.8493363997727359e-07  -2.9141852619912742e-09  2.8434254035807033e-07  -1.3469891135460135e-06  -8.3631315218766375e-06  -6.3045865998781664e-06  9.8815024867876945e-05  5.3948582669297517e-04  1.6777459062701343e-03  3.5926371609689371e-03  5.9627746076024724e-03  7.2020518095315513e-03  7.8183857062175191e-03  2.3664843262885854e-03  -1.8930641208684217e-02  9.1681835229364450e-01  0.0000000000000000e+00  2.4780205376057224e-01  2.9244045651785866e-01  1.8093752026089860e-01  6.4530437991485584e-02  1.0020324124771640e-02  -1.3274693971274767e-03  -5.5448958277185055e-04  1.2891471371208991e-04  3.8594425913074472e-05  -1.9677088655194868e-05  -1.6147215097516782e-06  2.9138254064598991e-06  -2.1804697475946176e-07  -2.2458885055141012e-07  1.7145735036949534e-08  -2.1168902341677116e-09  7.6809205507894610e-07  1.5662451245734291e-07  -9.3120494639004269e-06  -1.8367437780947597e-05  7.2113186219065130e-05  5.6432615899628205e-04  1.8650642933273854e-03  4.2233445300139134e-03  6.9255938372448679e-03  8.7145861481732270e-03  8.2213180455847183e-03  5.5938018127813845e-03  -2.5183693374103581e-02  7.0822035346780021e-01  0.0000000000000000e+00  2.3740589516830113e-01  2.8616638000734490e-01  1.8416397885056573e-01  7.0799610788715217e-02  1.3613719465751219e-02  -5.6399356213045898e-04  -7.0800796934891665e-04  4.4888317930820228e-05  5.8864479930380313e-05  -8.4202735897432497e-06  -6.2379610123001036e-06  1.1250787946868042e-06  8.3740392569851892e-07  1.7756262497607188e-07  -1.5478955978085189e-07  -1.7085784212056870e-07  1.3069504669399114e-06  1.3819609286308212e-06  -1.1614063774010366e-05  -2.9886484931812677e-05  7.6462088209774406e-05  6.6807098650946352e-04  2.2960229201928490e-03  5.1288103327441804e-03  8.5232774453464100e-03  1.0540946599140058e-02  9.8691208845533372e-03  7.9875052776709095e-03  -2.4200706490291830e-02  5.3742208590259777e-01  0.0000000000000000e+00  2.2610311490022419e-01  2.8047255581043146e-01  1.9042522634618514e-01  8.0621607301376949e-02  1.9398385386624611e-02  9.0954146590753807e-04  -8.3036356565628199e-04  -1.0642728730310966e-04  6.5350957861029984e-05  1.2941952062336100e-05  -6.4383886852076234e-06  -2.6350277009551989e-06  -1.4984323501994779e-07  -1.2627599232597789e-07  -6.1144062716919936e-07  6.3081578208804623e-09  2.7621154135601392e-06  1.3948102043465156e-06  -2.0455299698205634e-05  -4.0739413469475594e-05  1.1748782717769085e-04  9.3480149616881575e-04  2.9858896335077270e-03  6.5141071384873846e-03  1.0348906924177439e-02  1.2775381422472649e-02  1.1109785604997697e-02  9.6984244146737404e-03  -2.1853884933399730e-02  3.9955519042753274e-01  0.0000000000000000e+00  2.1393455831245756e-01  2.7486964347902970e-01  1.9905735092232177e-01  9.4148695121874071e-02  2.8193243785961275e-02  3.8100479663784742e-03  -6.6237707759708242e-04  -3.3848108509731159e-04  1.0782320008822515e-05  3.6094377974053596e-05  6.8689715367982497e-06  -2.3224322767529849e-06  -2.2400166028597118e-06  -1.4998302421476398e-06  -5.4010541929882294e-07  2.2828001937981339e-06  4.9757354641504046e-06  -5.2625128941041363e-06  -4.1392175649669701e-05  -4.2741494333033989e-05  2.7062954580676403e-04  1.4762505610131443e-03  4.2185429213830476e-03  8.4763212568707419e-03  1.2914991432166867e-02  1.5243390210390870e-02  1.3078198104643347e-02  1.0745027373957956e-02  -1.7086197694410516e-02  2.9008705678041102e-01  0.0000000000000000e+00  2.0100824664686315e-01  2.6878977349946243e-01  2.0930024643862585e-01  1.1147450155379243e-01  4.1071099491986111e-02  9.3059630922376207e-03  4.3324218899812235e-04  -5.1615676586733487e-04  -1.6332924292530672e-04  8.0349009605359364e-06  2.4093082837996602e-05  1.1651889909401851e-05  4.8190866374231157e-06  3.4692946526801696e-06  5.0427777068813984e-06  6.6073016839795882e-06  -1.2065621967746952e-06  -3.3043429537573535e-05  -7.2829658775774495e-05  3.1613490880107813e-05  6.9111065218856302e-04  2.5927468869921780e-03  6.2461068917406192e-03  1.1389635822398381e-02  1.6112898606294546e-02  1.8194147430727298e-02  1.4964044241596206e-02  1.1533015258160698e-02  -1.2627344322646141e-02  2.0482082360734946e-01  0.0000000000000000e+00  1.8723223411774209e-01  2.6157385491076934e-01  2.2008499968510409e-01  1.3240209427803354e-01  5.9167559398549868e-02  1.9127080687805807e-02  3.7916850645955745e-03  -3.8293212113217731e-05  -3.6441601475162598e-04  -1.5291064868578916e-04  -3.0610456578989995e-05  4.4674575844739644e-06  9.4164118067958400e-06  7.7544996463590300e-06  2.6743640238012434e-06  -1.2081709746396070e-05  -4.5542563327481442e-05  -8.5627816960636441e-05  -3.2381680436607931e-05  4.0647945058559288e-04  1.7844721939707835e-03  4.7556501763152239e-03  9.5912538418625216e-03  1.5471979053532682e-02  2.0228664355773748e-02  2.1400097553585004e-02  1.7124105244649423e-02  1.1963610547359015e-02  -8.0345683312172782e-03  1.3989537846277542e-01  0.0000000000000000e+00  1.7270212556281020e-01  2.5254527371980939e-01  2.3014418044841028e-01  1.5621844454281056e-01  8.3404231761824640e-02  3.5510083098350000e-02  1.1805825307321275e-02  2.7507836347269035e-03  1.7804703560601428e-04  -2.5442681231708397e-04  -2.0386088169681903e-04  -1.2159377335864638e-04  -7.7774381738278064e-05  -6.5002510330465995e-05  -7.3403753580251154e-05  -9.4434494165444497e-05  -9.8800113721625381e-05  1.1426049501431014e-05  4.7464566788571521e-04  1.7291899150017481e-03  4.3526691850224149e-03  8.7921929367934058e-03  1.4807939011922651e-02  2.1082878398821364e-02  2.5150173772629202e-02  2.4904599740044206e-02  1.9118646123740892e-02  1.2287716080274536e-02  -4.3338678661369277e-03  9.1785357809426968e-02  0.0000000000000000e+00  1.5720622211112434e-01  2.4089964942812675e-01  2.3768504435379276e-01  1.8126160545800538e-01  1.1377692287866883e-01  6.0646319597580982e-02  2.7949669343195687e-02  1.1246221969127944e-02  3.9458491636821602e-03  1.1686120695046170e-03  2.4271459221684861e-04  -2.3287899429363381e-05  -8.0427360986328660e-05  -7.2605842410534600e-05  -2.4263469494530765e-05  1.0496956703228224e-04  4.2885980581712485e-04  1.1698393721167807e-03  2.6865964284912645e-03  5.4345749134942162e-03  9.8010257508046351e-03  1.5760951196505158e-02  2.2510257258307173e-02  2.8277017079536199e-02  3.0773953351203996e-02  2.8366601624120139e-02  2.0916865278015190e-02  1.2387693175739026e-02  -1.3292349587474921e-03  5.7301147018352823e-02  0.0000000000000000e+00  1.4087070066978433e-01  2.2595194345710246e-01  2.4077073288680459e-01  2.0483828666336040e-01  1.4869135206605205e-01  9.5586386618802033e-02  5.5966919468951326e-02  3.0650914983562271e-02  1.6176729432852453e-02  8.5375310579963969e-03  4.7245062102806825e-03  2.9056967595089424e-03  2.1105394461063101e-03  1.8884384080781799e-03  2.0837684177112286e-03  2.7216538199720921e-03  3.9590600849067617e-03  6.0547333178177284e-03  9.3120279463757942e-03  1.3958375387156111e-02  1.9935973967487482e-02  2.6665400032321356e-02  3.2876068836959003e-02  3.6773218560322327e-02  3.6558375831447693e-02  3.1463414534098511e-02  2.2188454282885683e-02  1.2313832017007380e-02  7.5094354651731319e-04  3.3588880368912333e-02  0.0000000000000000e+00  1.2337345047317133e-01  2.0681421392621635e-01  2.3685348920732782e-01  2.2269640774240593e-01  1.8371373959192763e-01  1.3808418730565283e-01  9.7274680460889232e-02  6.5893180103429136e-02  4.4046879866342710e-02  2.9856733542664753e-02  2.1103813051623940e-02  1.5971718323167534e-02  1.3219126216321391e-02  1.2104483319530252e-02  1.2250317217689533e-02  1.3520613908006461e-02  1.5919743520765278e-02  1.9496445843094165e-02  2.4234067981331601e-02  2.9916930327882521e-02  3.5999242525423997e-02  4.1516270643009480e-02  4.5156769219668644e-02  4.5522659902477162e-02  4.1660314551528133e-02  3.3613573290742021e-02  2.2721859481193075e-02  1.1949952295033544e-02  2.0584327370340135e-03  1.8130441048775668e-02  0.0000000000000000e+00  1.0489267471470221e-01  1.8300180146714848e-01  2.2372917433075645e-01  2.2981420330063465e-01  2.1158986089560555e-01  1.8090561252201795e-01  1.4727971666765702e-01  1.1658236817637575e-01  9.1443056516317997e-02  7.2336190531948757e-02  5.8638299893327604e-02  4.9363175920968595e-02  4.3558167160817847e-02  4.0458133096135405e-02  3.9500827033519294e-02  4.0277071881343725e-02  4.2454156096741642e-02  4.5691329998296358e-02  4.9556268691726260e-02  5.3459523887359597e-02  5.6622733981937401e-02  5.8125028914851593e-02  5.7033623016426949e-02  5.2656942560456603e-02  4.4832648248392518e-02  3.4197557027487571e-02  2.2231741865122147e-02  1.1234652762827060e-02  2.6657562189280988e-03  8.7434611539234514e-03  0.0000000000000000e+00  8.5030110271688900e-02  1.5371228039003146e-01  1.9881046722517101e-01  2.2009328940186026e-01  2.2183467767118936e-01  2.1021552716780076e-01  1.9128616674343385e-01  1.6984371390579212e-01  1.4909856321163834e-01  1.3084018436121544e-01  1.1581137562403035e-01  1.0409445942155038e-01  9.5413677317645051e-02  8.9331644444184691e-02  8.5354403196278378e-02  8.297314449133