<?xml version="1.0"?>
<VTKFile type="UnstructuredGrid"  version="0.1"  >
<UnstructuredGrid>
<Piece  NumberOfPoints="961" NumberOfCells="1800">
<Points>
<DataArray  type="Float64"  NumberOfComponents="3"  format="ascii">-1 -1 0  -0.9333333333333333 -1 0  -0.8666666666666667 -1 0  -0.8 -1 0  -0.7333333333333334 -1 0  -0.6666666666666667 -1 0  -0.6 -1 0  -0.5333333333333333 -1 0  -0.4666666666666667 -1 0  -0.4 -1 0  -0.3333333333333334 -1 0  -0.2666666666666667 -1 0  -0.2 -1 0  -0.1333333333333333 -1 0  -0.06666666666666665 -1 0  0 -1 0  0.06666666666666665 -1 0  0.1333333333333333 -1 0  0.2 -1 0  0.2666666666666666 -1 0  0.3333333333333333 -1 0  0.3999999999999999 -1 0  0.4666666666666666 -1 0  0.5333333333333334 -1 0  0.6000000000000001 -1 0  0.6666666666666667 -1 0  0.7333333333333334 -1 0  0.8 -1 0  0.8666666666666667 -1 0  0.9333333333333333 -1 0  1 -1 0  -1 -0.9333333333333333 0  -0.9333333333333333 -0.9333333333333333 0  -0.8666666666666667 -0.9333333333333333 0  -0.8 -0.9333333333333333 0  -0.7333333333333334 -0.9333333333333333 0  -0.6666666666666667 -0.9333333333333333 0  -0.6 -0.9333333333333333 0  -0.5333333333333333 -0.9333333333333333 0  -0.4666666666666667 -0.9333333333333333 0  -0.4 -0.9333333333333333 0  -0.3333333333333334 -0.9333333333333333 0  -0.2666666666666667 -0.9333333333333333 0  -0.2 -0.9333333333333333 0  -0.1333333333333333 -0.9333333333333333 0  -0.06666666666666665 -0.9333333333333333 0  0 -0.9333333333333333 0  0.06666666666666665 -0.9333333333333333 0  0.1333333333333333 -0.9333333333333333 0  0.2 -0.9333333333333333 0  0.2666666666666666 -0.9333333333333333 0  0.3333333333333333 -0.9333333333333333 0  0.3999999999999999 -0.9333333333333333 0  0.4666666666666666 -0.9333333333333333 0  0.5333333333333334 -0.9333333333333333 0  0.6000000000000001 -0.9333333333333333 0  0.6666666666666667 -0.9333333333333333 0  0.7333333333333334 -0.9333333333333333 0  0.8 -0.9333333333333333 0  0.8666666666666667 -0.9333333333333333 0  0.9333333333333333 -0.9333333333333333 0  1 -0.9333333333333333 0  -1 -0.8666666666666667 0  -0.9333333333333333 -0.8666666666666667 0  -0.8666666666666667 -0.8666666666666667 0  -0.8 -0.8666666666666667 0  -0.7333333333333334 -0.8666666666666667 0  -0.6666666666666667 -0.8666666666666667 0  -0.6 -0.8666666666666667 0  -0.5333333333333333 -0.8666666666666667 0  -0.4666666666666667 -0.8666666666666667 0  -0.4 -0.8666666666666667 0  -0.3333333333333334 -0.8666666666666667 0  -0.2666666666666667 -0.8666666666666667 0  -0.2 -0.8666666666666667 0  -0.1333333333333333 -0.8666666666666667 0  -0.06666666666666665 -0.8666666666666667 0  0 -0.8666666666666667 0  0.06666666666666665 -0.8666666666666667 0  0.1333333333333333 -0.8666666666666667 0  0.2 -0.8666666666666667 0  0.2666666666666666 -0.8666666666666667 0  0.3333333333333333 -0.8666666666666667 0  0.3999999999999999 -0.8666666666666667 0  0.4666666666666666 -0.8666666666666667 0  0.5333333333333334 -0.8666666666666667 0  0.6000000000000001 -0.8666666666666667 0  0.6666666666666667 -0.8666666666666667 0  0.7333333333333334 -0.8666666666666667 0  0.8 -0.8666666666666667 0  0.8666666666666667 -0.8666666666666667 0  0.9333333333333333 -0.8666666666666667 0  1 -0.8666666666666667 0  -1 -0.8 0  -0.9333333333333333 -0.8 0  -0.8666666666666667 -0.8 0  -0.8 -0.8 0  -0.7333333333333334 -0.8 0  -0.6666666666666667 -0.8 0  -0.6 -0.8 0  -0.5333333333333333 -0.8 0  -0.4666666666666667 -0.8 0  -0.4 -0.8 0  -0.3333333333333334 -0.8 0  -0.2666666666666667 -0.8 0  -0.2 -0.8 0  -0.1333333333333333 -0.8 0  -0.06666666666666665 -0.8 0  0 -0.8 0  0.06666666666666665 -0.8 0  0.1333333333333333 -0.8 0  0.2 -0.8 0  0.2666666666666666 -0.8 0  0.3333333333333333 -0.8 0  0.3999999999999999 -0.8 0  0.4666666666666666 -0.8 0  0.5333333333333334 -0.8 0  0.6000000000000001 -0.8 0  0.6666666666666667 -0.8 0  0.7333333333333334 -0.8 0  0.8 -0.8 0  0.8666666666666667 -0.8 0  0.9333333333333333 -0.8 0  1 -0.8 0  -1 -0.7333333333333334 0  -0.9333333333333333 -0.7333333333333334 0  -0.8666666666666667 -0.7333333333333334 0  -0.8 -0.7333333333333334 0  -0.7333333333333334 -0.7333333333333334 0  -0.6666666666666667 -0.7333333333333334 0  -0.6 -0.7333333333333334 0  -0.5333333333333333 -0.7333333333333334 0  -0.4666666666666667 -0.7333333333333334 0  -0.4 -0.7333333333333334 0  -0.3333333333333334 -0.7333333333333334 0  -0.2666666666666667 -0.7333333333333334 0  -0.2 -0.7333333333333334 0  -0.1333333333333333 -0.7333333333333334 0  -0.06666666666666665 -0.7333333333333334 0  0 -0.7333333333333334 0  0.06666666666666665 -0.7333333333333334 0  0.1333333333333333 -0.7333333333333334 0  0.2 -0.7333333333333334 0  0.2666666666666666 -0.7333333333333334 0  0.3333333333333333 -0.7333333333333334 0  0.3999999999999999 -0.7333333333333334 0  0.4666666666666666 -0.7333333333333334 0  0.5333333333333334 -0.7333333333333334 0  0.6000000000000001 -0.7333333333333334 0  0.6666666666666667 -0.7333333333333334 0  0.7333333333333334 -0.7333333333333334 0  0.8 -0.7333333333333334 0  0.8666666666666667 -0.7333333333333334 0  0.9333333333333333 -0.7333333333333334 0  1 -0.7333333333333334 0  -1 -0.6666666666666667 0  -0.9333333333333333 -0.6666666666666667 0  -0.8666666666666667 -0.6666666666666667 0  -0.8 -0.6666666666666667 0  -0.7333333333333334 -0.6666666666666667 0  -0.6666666666666667 -0.6666666666666667 0  -0.6 -0.6666666666666667 0  -0.5333333333333333 -0.6666666666666667 0  -0.4666666666666667 -0.6666666666666667 0  -0.4 -0.6666666666666667 0  -0.3333333333333334 -0.6666666666666667 0  -0.2666666666666667 -0.6666666666666667 0  -0.2 -0.6666666666666667 0  -0.1333333333333333 -0.6666666666666667 0  -0.06666666666666665 -0.6666666666666667 0  0 -0.6666666666666667 0  0.06666666666666665 -0.6666666666666667 0  0.1333333333333333 -0.6666666666666667 0  0.2 -0.6666666666666667 0  0.2666666666666666 -0.6666666666666667 0  0.3333333333333333 -0.6666666666666667 0  0.3999999999999999 -0.6666666666666667 0  0.4666666666666666 -0.6666666666666667 0  0.5333333333333334 -0.6666666666666667 0  0.6000000000000001 -0.6666666666666667 0  0.6666666666666667 -0.6666666666666667 0  0.7333333333333334 -0.6666666666666667 0  0.8 -0.6666666666666667 0  0.8666666666666667 -0.6666666666666667 0  0.9333333333333333 -0.6666666666666667 0  1 -0.6666666666666667 0  -1 -0.6 0  -0.9333333333333333 -0.6 0  -0.8666666666666667 -0.6 0  -0.8 -0.6 0  -0.7333333333333334 -0.6 0  -0.6666666666666667 -0.6 0  -0.6 -0.6 0  -0.5333333333333333 -0.6 0  -0.4666666666666667 -0.6 0  -0.4 -0.6 0  -0.3333333333333334 -0.6 0  -0.2666666666666667 -0.6 0  -0.2 -0.6 0  -0.1333333333333333 -0.6 0  -0.06666666666666665 -0.6 0  0 -0.6 0  0.06666666666666665 -0.6 0  0.1333333333333333 -0.6 0  0.2 -0.6 0  0.2666666666666666 -0.6 0  0.3333333333333333 -0.6 0  0.3999999999999999 -0.6 0  0.4666666666666666 -0.6 0  0.5333333333333334 -0.6 0  0.6000000000000001 -0.6 0  0.6666666666666667 -0.6 0  0.7333333333333334 -0.6 0  0.8 -0.6 0  0.8666666666666667 -0.6 0  0.9333333333333333 -0.6 0  1 -0.6 0  -1 -0.5333333333333333 0  -0.9333333333333333 -0.5333333333333333 0  -0.8666666666666667 -0.5333333333333333 0  -0.8 -0.5333333333333333 0  -0.7333333333333334 -0.5333333333333333 0  -0.6666666666666667 -0.5333333333333333 0  -0.6 -0.5333333333333333 0  -0.5333333333333333 -0.5333333333333333 0  -0.4666666666666667 -0.5333333333333333 0  -0.4 -0.5333333333333333 0  -0.3333333333333334 -0.5333333333333333 0  -0.2666666666666667 -0.5333333333333333 0  -0.2 -0.5333333333333333 0  -0.1333333333333333 -0.5333333333333333 0  -0.06666666666666665 -0.5333333333333333 0  0 -0.5333333333333333 0  0.06666666666666665 -0.5333333333333333 0  0.1333333333333333 -0.5333333333333333 0  0.2 -0.5333333333333333 0  0.2666666666666666 -0.5333333333333333 0  0.3333333333333333 -0.5333333333333333 0  0.3999999999999999 -0.5333333333333333 0  0.4666666666666666 -0.5333333333333333 0  0.5333333333333334 -0.5333333333333333 0  0.6000000000000001 -0.5333333333333333 0  0.6666666666666667 -0.5333333333333333 0  0.7333333333333334 -0.5333333333333333 0  0.8 -0.5333333333333333 0  0.8666666666666667 -0.5333333333333333 0  0.9333333333333333 -0.5333333333333333 0  1 -0.5333333333333333 0  -1 -0.4666666666666667 0  -0.9333333333333333 -0.4666666666666667 0  -0.8666666666666667 -0.4666666666666667 0  -0.8 -0.4666666666666667 0  -0.7333333333333334 -0.4666666666666667 0  -0.6666666666666667 -0.4666666666666667 0  -0.6 -0.4666666666666667 0  -0.5333333333333333 -0.4666666666666667 0  -0.4666666666666667 -0.4666666666666667 0  -0.4 -0.4666666666666667 0  -0.3333333333333334 -0.4666666666666667 0  -0.2666666666666667 -0.4666666666666667 0  -0.2 -0.4666666666666667 0  -0.1333333333333333 -0.4666666666666667 0  -0.06666666666666665 -0.4666666666666667 0  0 -0.4666666666666667 0  0.06666666666666665 -0.4666666666666667 0  0.1333333333333333 -0.4666666666666667 0  0.2 -0.4666666666666667 0  0.2666666666666666 -0.4666666666666667 0  0.3333333333333333 -0.4666666666666667 0  0.3999999999999999 -0.4666666666666667 0  0.4666666666666666 -0.4666666666666667 0  0.5333333333333334 -0.4666666666666667 0  0.6000000000000001 -0.4666666666666667 0  0.6666666666666667 -0.4666666666666667 0  0.7333333333333334 -0.4666666666666667 0  0.8 -0.4666666666666667 0  0.8666666666666667 -0.4666666666666667 0  0.9333333333333333 -0.4666666666666667 0  1 -0.4666666666666667 0  -1 -0.4 0  -0.9333333333333333 -0.4 0  -0.8666666666666667 -0.4 0  -0.8 -0.4 0  -0.7333333333333334 -0.4 0  -0.6666666666666667 -0.4 0  -0.6 -0.4 0  -0.5333333333333333 -0.4 0  -0.4666666666666667 -0.4 0  -0.4 -0.4 0  -0.3333333333333334 -0.4 0  -0.2666666666666667 -0.4 0  -0.2 -0.4 0  -0.1333333333333333 -0.4 0  -0.06666666666666665 -0.4 0  0 -0.4 0  0.06666666666666665 -0.4 0  0.1333333333333333 -0.4 0  0.2 -0.4 0  0.2666666666666666 -0.4 0  0.3333333333333333 -0.4 0  0.3999999999999999 -0.4 0  0.4666666666666666 -0.4 0  0.5333333333333334 -0.4 0  0.6000000000000001 -0.4 0  0.6666666666666667 -0.4 0  0.7333333333333334 -0.4 0 
[...]
<PointData  Scalars="f_24"> 
<DataArray  type="Float64"  Name="f_24"  format="ascii">0.0000000000000000e+00  0.0000000000000000e+00  0.0000000000000000e+00  0.0000000000000000e+00  0.0000000000000000e+00  0.0000000000000000e+00  0.0000000000000000e+00  0.0000000000000000e+00  0.0000000000000000e+00  0.0000000000000000e+00  0.0000000000000000e+00  0.0000000000000000e+00  0.0000000000000000e+00  0.0000000000000000e+00  0.0000000000000000e+00  0.0000000000000000e+00  0.0000000000000000e+00  0.0000000000000000e+00  0.0000000000000000e+00  0.0000000000000000e+00  0.0000000000000000e+00  0.0000000000000000e+00  0.0000000000000000e+00  0.0000000000000000e+00  0.0000000000000000e+00  0.0000000000000000e+00  0.0000000000000000e+00  0.0000000000000000e+00  0.0000000000000000e+00  0.0000000000000000e+00  1.1560437658273159e+01  0.0000000000000000e+00  5.6307715161630981e-02  1.0950670078347234e-01  1.5953354308726522e-01  2.0689185281946923e-01  2.5208887110857242e-01  2.9564449718929114e-01  3.3811244952713781e-01  3.8009445149284254e-01  4.2225596185620956e-01  4.6534277633161658e-01  5.1020101948511110e-01  5.5780394272834166e-01  6.0928923752213759e-01  6.6601142798067481e-01  7.2961530605990432e-01  8.0213869829956086e-01  8.8615667582342017e-01  9.8498528054901846e-01  1.1029721359671423e+00  1.2459159879292316e+00  1.4216810001035629e+00  1.6411117218548188e+00  1.9194255498786859e+00  2.2783934953557172e+00  2.7498914773376413e+00  3.3819901010923119e+00  4.2502738441480359e+00  5.4804864746346604e+00  7.3037773493506970e+00  1.0094417169606293e+01  0.0000000000000000e+00  1.0869954694706592e-01  2.0483210629727999e-01  2.8434568804110660e-01  3.4629107167805750e-01  3.9128275642161875e-01  4.2099627372575787e-01  4.3768324426954536e-01  4.4378387500620559e-01  4.4166224721396563e-01  4.3344823972234309e-01  4.2096747157358916e-01  4.0573414879010811e-01  3.8898503744593982e-01  3.7173920857275017e-01  3.5487538953515341e-01  3.3922660573579172e-01  3.2570042307760377e-01  3.1544415687245198e-01  3.1009114542612559e-01  3.1215211367884882e-01  3.2566459331856035e-01  3.5730122818664750e-01  4.1829990898620084e-01  5.2788823688196318e-01  7.1950496389098728e-01  1.0525503266279825e+00  1.6358030638074039e+00  2.6803636575375265e+00  4.6334553841456962e+00  8.7724597151648727e+00  0.0000000000000000e+00  1.5491971973159058e-01  2.7870679648943442e-01  3.6027047744714596e-01  3.9947519707472595e-01  4.0266718066408663e-01  3.7919596533409949e-01  3.3868238476743290e-01  2.8939936875754868e-01  2.3761768821912818e-01  1.8759070255344437e-01  1.4187319966762638e-01  1.0174772961306863e-01  6.7630725114746770e-02  3.9402685717177685e-02  1.6651537424904529e-02  -1.1589903613373998e-03  -1.4575096965009549e-02  -2.4067959600959945e-02  -2.9947351908562628e-02  -3.2226501177513495e-02  -3.0348793485010434e-02  -2.2589437444547895e-02  -4.7311370421014758e-03  3.2849457928597850e-02  1.1154355760347903e-01  2.7837498688703305e-01  6.3720261260579891e-01  1.4213089083582242e+00  3.2023223340737657e+00  7.5848031475930195e+00  0.0000000000000000e+00  1.9375912328529937e-01  3.2955163557150913e-01  3.9023252802274511e-01  3.8467148872734019e-01  3.3459604983814728e-01  2.6337528507442171e-01  1.8940306253493072e-01  1.2403490371046325e-01  7.2385860752836387e-02  3.5243384486438489e-02  1.0979241773633895e-02  -3.0243663149001716e-03  -9.4999068432312008e-03  -1.0856307491935845e-02  -9.0233361573633288e-03  -5.4513584155574408e-03  -1.1817818092921192e-03  3.0602656703917811e-03  6.7750288125020706e-03  9.6113773747909682e-03  1.1322544839653441e-02  1.1818332149748352e-02  1.1535661208002370e-02  1.2803582493944844e-02  2.4090416976988719e-02  7.2127179242579720e-02  2.3426924052587866e-01  7.2787424534817180e-01  2.1586576611963531e+00  6.5220278510210319e+00  0.0000000000000000e+00  2.2481791868565826e-01  3.5965016966469238e-01  3.8613104194854531e-01  3.3241915116127818e-01  2.4213095846985910e-01  1.5124377811832865e-01  7.9496715240761837e-02  3.2245576543659796e-02  6.2989410155070156e-03  -4.7039019745132955e-03  -6.9762391674629484e-03  -5.1945529651044615e-03  -2.3048337752788186e-03  1.4011674929103818e-04  1.5238597427975505e-03  1.7749483959713895e-03  1.0915005502083774e-03  -2.2907276206813272e-04  -1.8852676922949418e-03  -3.6233375189254307e-03  -5.2767089365394681e-03  -6.8239704090539907e-03  -8.4713299035320527e-03  -1.0548309786732568e-02  -1.2052830181709578e-02  -3.4232751749493106e-03  6.1253482314836245e-02  3.5340080730308976e-01  1.4730261579460082e+00  5.5750567410653744e+00  0.0000000000000000e+00  2.4832468228033761e-01  3.7324555544292176e-01  3.6161043040473789e-01  2.6857677272919622e-01  1.5920588401514063e-01  7.3605836145692383e-02  2.2829221738627049e-02  3.6225286444072687e-04  -5.4223305532203926e-03  -4.1519489570689813e-03  -1.4444941404261912e-03  3.9629195655905230e-04  9.8778801372250368e-04  7.3719576338216375e-04  1.9120662659159567e-04  -2.3812514410616865e-04  -3.3323380560646955e-04  -3.8504086606304738e-05  5.9666005933452432e-04  1.4695600528951372e-03  2.4605347690557461e-03  3.4405343190631985e-03  4.1995139085373601e-03  4.1661909933275601e-03  2.0641823507294992e-03  -1.9529171676361185e-03  1.0908333795029307e-02  1.6118476213587610e-01  9.8146046061976655e-01  4.7351552648286868e+00  0.0000000000000000e+00  2.6493192447509623e-01  3.7502735319564295e-01  3.2798427814701131e-01  2.0879226433806669e-01  9.7938493805639348e-02  2.9861780811532929e-02  1.3220269699379917e-03  -4.7251857914088072e-03  -2.8229392723467962e-03  -3.6488351239398204e-04  6.3311536386764062e-04  5.2947528628064509e-04  1.0681688008147418e-04  -1.6537888981627016e-04  -1.8499171239828247e-04  -5.4681228274448511e-05  7.2713762734226859e-05  8.0138149087140905e-05  -8.5880754503661518e-05  -4.1995021605615353e-04  -8.7362222972537415e-04  -1.3639177968143652e-03  -1.7767291108793134e-03  -2.0586393162685215e-03  -2.8579440827205330e-03  -6.5939448832214673e-03  -1.0504216866411592e-02  5.4905291355418634e-02  6.4139282318085500e-01  3.9939314008997755e+00  0.0000000000000000e+00  2.7552006702558102e-01  3.6921322851898702e-01  2.9298177067419690e-01  1.5984397236090217e-01  5.7750586074172425e-02  8.9209266019746759e-03  -3.8574430259361967e-03  -2.8393534398262572e-03  -3.0812350923665083e-04  5.3613815059123547e-04  3.0494314316759173e-04  -3.2641254063827818e-05  -1.2476086661070577e-04  -4.7098354509541665e-05  4.1986011284962860e-05  6.5612227491676140e-05  3.9904160061828025e-05  2.7484544801247843e-05  9.2908902955177343e-05  2.7765214670124846e-04  5.9141210166840832e-04  1.0099790687724741e-03  1.5000338937618111e-03  2.0725476777607253e-03  2.6717295329519598e-03  1.4939870252206238e-03  -6.0578838274755742e-03  1.1302893247264653e-02  4.0724155016322033e-01  3.3433356593536274e+00  0.0000000000000000e+00  2.8104016268315490e-01  3.5914989379186235e-01  2.6108804726162527e-01  1.2301105776422372e-01  3.3471588519531907e-02  4.0145108678021386e-04  -3.5591504248143418e-03  -8.8538125161807921e-04  4.2077118704382603e-04  2.8107617786447993e-04  -3.3816207077243763e-05  -8.7958795255594681e-05  -1.2853400612048885e-05  3.0974871554760422e-05  1.7691340443494109e-05  -8.8874924086121910e-06  -1.4212235258822110e-05  8.6725853323723728e-07  1.2897811919973343e-05  -1.5328688884922066e-06  -5.0914750869347894e-05  -1.2703066771077595e-04  -2.3336439155129826e-04  -3.3995987679898430e-04  -2.9090022276827108e-04  -3.5967880385923546e-04  -5.9952549386924417e-03  -1.1380502881841113e-02  2.4201024759593334e-01  2.7756610817513847e+00  0.0000000000000000e+00  2.8240587205652368e-01  3.4725367829999115e-01  2.3444330430595825e-01  9.6985756942898543e-02  1.9708530266906752e-02  -2.3588620586311041e-03  -2.2651097499324256e-03  3.0748494041904498e-05  3.6110674750867961e-04  2.7148662663972318e-05  -7.6947031874018894e-05  -1.4101938409212032e-05  2.1793199141457542e-05  7.6814490807227851e-06  -7.4485209613301735e-06  -3.7755705273003319e-06  7.3740933222459694e-06  1.5012790170983113e-05  2.7871491059916113e-05  7.4778531811241970e-05  1.9706407377489412e-04  4.3174964581067365e-04  7.9860018039354527e-04  1.2080581683283638e-03  1.6964099999110646e-03  2.3901012308529860e-03  2.1351452649930757e-04  -1.4024469821724957e-02  1.3614772189820301e-01  2.2835432411403782e+00  0.0000000000000000e+00  2.8043159460570016e-01  3.3512242347243371e-01  2.1373232291882571e-01  7.9687631575624654e-02  1.2387338878513354e-02  -2.8429182201237246e-03  -1.2748701838410786e-03  2.8987090342180098e-04  1.8281898562774203e-04  -5.4492786964730970e-05  -3.4398814939417806e-05  1.4369453445767009e-05  8.5284560908159091e-06  -5.1116940909416203e-06  -2.9325136782721705e-06  1.9268732420813976e-06  3.3112338894585625e-07  -3.3303570196199230e-06  -7.2832384745384743e-07  1.6215925229500521e-05  6.1323794518115601e-05  1.6434594371133145e-04  3.3932548167992210e-04  5.8627249273470947e-04  6.6973655013263453e-04  1.0858233748068150e-03  3.6280341059032587e-04  -1.3777001596463959e-02  6.1637670450703445e-02  1.8599602420540939e+00  0.0000000000000000e+00  2.7580270151072384e-01  3.2370756766928560e-01  1.9885201615257433e-01  6.9161490743114173e-02  8.8920918812715154e-03  -2.6038191059745927e-03  -7.3213731013553563e-04  2.9530170985820687e-04  7.2902872570818037e-05  -5.4609763462540934e-05  -5.5230042489556137e-06  1.2361147529474867e-05  -9.5851385490005433e-07  -3.3337404725002160e-06  1.0566711382996789e-06  7.6634211827635273e-07  -1.2145053811051688e-06  -1.1116042099695317e-06  1.7711780248295385e-06  1.6895286628886163e-05  8.1990886594654103e-05  2.6019065661004763e-04  6.3576226003446716e-04  1.1692720413795878e-03  1.7659762252206130e-03  2.0765822340420579e-03  3.1290554072643940e-03  -8.6987144363850563e-03  1.9568698009421570e-02  1.4982327205122012e+00  0.0000000000000000e+00  2.6907487570550020e-01  3.1347878392213435e-01  1.8934167663243323e-01  6.3909135504489553e-02  7.7432396371996375e-03  -2.2201738050001297e-03  -5.0716874831363112e-04  2.4153240272678205e-04  3.0506123709599763e-05  -3.9262244084480666e-05  3.0545243109208862e-06  6.5924223185792770e-06  -2.4465739173939819e-06  -8.7770669479984825e-07  1.0211327428391825e-06  -1.5101703906678751e-07  -4.7335564900115296e-07  -1.1172741103081349e-06  -4.0893627464049981e-06  -5.4014771773364256e-07  4.3360642189853336e-05  2.0941656979414600e-04  5.6415150880283313e-04  1.1671550984721859e-03  1.6871113034568829e-03  1.9786406918564821e-03  2.4350792062842732e-03  -4.7309345788266134e-03  -8.8305875307138123e-03  1.1920238440205340e+00  0.0000000000000000e+00  2.6067289096783464e-01  3.0456551419454764e-01  1.8461562191592903e-01  6.2943900001707687e-02  8.2394983177745008e-03  -1.8275530970556452e-03  -4.7629746097141819e-04  1.8743046738197854e-04  2.5622146178108473e-05  -2.8028526203488988e-05  2.3585259937999842e-06  3.8982438853037952e-06  -1.5088749527975540e-06  -2.9811223330579331e-07  3.8386160703669606e-07  -7.8492736595159199e-08  2.2346610260261873e-07  -3.9641280258375773e-07  -4.1782266118804757e-06  -5.7384417993821555e-06  3.7499754471590463e-05  2.2329336418346846e-04  7.1496277389979405e-04  1.4874450859353476e-03  2.4700128794746630e-03  2.7357122351179776e-03  3.5208836171622981e-03  -6.8944874566764466e-04  -2.0707005296814730e-02  9.3533931157109851e-01  0.0000000000000000e+00  2.5092414574280592e-01  2.9685144994895779e-01  1.8407723866150771e-01  6.5720865096578082e-02  1.0208043902018706e-02  -1.3541858176512411e-03  -5.6546973721660252e-04  1.3130681493493993e-04  3.9401481693633973e-05  -2.0119715596685930e-05  -1.6254229425225519e-06  2.9640586926100113e-06  -2.1368781909477717e-07  -2.3349243449559707e-07  2.7181015632643960e-08  -4.9627518252939494e-08  4.7327526042618142e-07  3.7460368991872091e-07  -4.9457581076717165e-06  -1.1964299709897046e-05  2.4531832468278545e-05  2.4870230151138455e-04  8.1682353431489316e-04  1.8318080131514026e-03  2.8575900719292327e-03  3.4532719309296341e-03  3.1173297827461147e-03  2.0688022242141189e-03  -2.7284860137403364e-02  7.2252735364207243e-01  0.0000000000000000e+00  2.4004092893631560e-01  2.9005337070189929e-01  1.8712741328551724e-01  7.2040912190872344e-02  1.3858010817603520e-02  -5.7660867101736119e-04  -7.2178300826610626e-04  4.5655170758667794e-05  6.0034605009652472e-05  -8.5940067001601675e-06  -6.3572142687288002e-06  1.1464772880577553e-06  8.4560823515774254e-07  1.7290014206785576e-07  -1.1335505113241729e-07  -1.5847640515587416e-07  8.7437957175857968e-07  1.1824122475757831e-06  -6.6419857561923914e-06  -1.9697351811317452e-05  2.9392701456379993e-05  3.1190613526019126e-04  1.0792212717714083e-03  2.3239517794866808e-03  3.7430976070178300e-03  4.3648348968697267e-03  3.9072925000495362e-03  3.9499624183246549e-03  -2.6478077007206387e-02  5.4827873219780454e-01  0.0000000000000000e+00  2.2819669536630721e-01  2.8375362890547218e-01  1.9315954841400640e-01  8.1923494360109358e-02  1.9723406723140990e-02  9.2131674297126116e-04  -8.4641339385119782e-04  -1.0848512779155818e-04  6.6576704845396547e-05  1.3196929974633309e-05  -6.5548501387995787e-06  -2.6829536366527854e-06  -1.6403782147354922e-07  -1.2050069335974977e-07  -5.2647643269987253e-07  -1.0456606689909231e-08  2.0745218498481038e-06  1.3336561143249016e-06  -1.3190749156213839e-05  -2.8187090376184411e-05  5.0403027702941346e-05  4.7205377501856202e-04  1.4662194186688851e-03  3.1073272031956734e-03  4.6563722383138623e-03  5.5427650798700765e-03  4.2102936741594682e-03  5.1205993852380402e-03  -2.4271048424772342e-02  4.0762674068881449e-01  0.0000000000000000e+00  2.1544297186024178e-01  2.7743902860545194e-01  2.0146003447123206e-01  9.5479465266818747e-02  2.8617459975330925e-02  3.8628984526357431e-03  -6.7626920644949678e-04  -3.4463270271167633e-04  1.0994875029867273e-05  3.6736774408458179e-05  6.9919453195798649e-06  -2.3534257512543014e-06  -2.2591367058152338e-06  -1.4628980882445690e-06  -4.8335134742633287e-07  1.9615288078560168e-06  4.0412746938124699e-06  -3.5117891632026778e-06  -2.9001169455035621e-05  -3.4167776967422671e-05  1.4072055303467583e-04  7.8921400783107986e-04  2.1856773085192722e-03  4.1938502743991890e-03  6.0591607718877378e-03  6.7906119264695515e-03  5.1971162286138673e-03  5.6169682521554605e-03  -1.9578035048841900e-02  2.9594720405179292e-01  0.0000000000000000e+00  2.0187552859655433e-01  2.7051103556625805e-01  2.1119330812265463e-01  1.1273034741855091e-01  4.1581083465102732e-02  9.4165469669843828e-03  4.3078366618827415e-04  -5.2598810677822669e-04  -1.6593219783029643e-04  8.2409974428896550e-06  2.4460650812794172e-05  1.1788733202456397e-05  4.8462041631088990e-06  3.4397588883419053e-06  4.7861783554156894e-06  5.9261074173399321e-06  -7.6510763592682223e-07  -2.5331635438605097e-05  -5.5226575229288914e-05  8.0713120560505584e-06  3.9789129906641024e-04  1.4663141358582726e-03  3.3684694503537910e-03  5.8552543126467989e-03  7.7810129821097342e-03  8.3579497121503577e-03  6.0663382284530960e-03  5.8759271646790902e-03  -1.5175720198872833e-02  2.0895847870960171e-01  0.0000000000000000e+00  1.8741504711240117e-01  2.6229149393453371e-01  2.2122022684072848e-01  1.3337675484691897e-01  5.9680876675653333e-02  1.9290209887718804e-02  3.8109164734026189e-03  -4.8185502886282740e-05  -3.7100563693753152e-04  -1.5471201537139173e-04  -3.0625844134512093e-05  4.7251008545213232e-06  9.5784635797637035e-06  7.7960048406776020e-06  2.7939171110171490e-06  -1.0506707793281004e-05  -3.8407879346316323e-05  -6.9992597774995861e-05  -3.4446808648149224e-05  2.5188399578482802e-04  1.0980328149895954e-03  2.8005682550033503e-03  5.3663466524915505e-03  8.1893367628182168e-03  1.0071476056136851e-02  1.0033819267266491e-02  7.2242145373500946e-03  5.8257687054864612e-03  -1.0603624760223652e-02  1.4272145257127364e-01  0.0000000000000000e+00  1.7214933040487190e-01  2.5207445315209681e-01  2.3017496654715205e-01  1.5654298850116402e-01  8.3679422895974270e-02  3.5624549566383605e-02  1.1817505537881901e-02  2.7323393237391846e-03  1.6225366060318273e-04  -2.6214185009137134e-04  -2.0634972490608133e-04  -1.2164649779404319e-04  -7.6666998016205039e-05  -6.2853215356014383e-05  -6.9257270641198476e-05  -8.6592289884214533e-05  -8.9821926624337949e-05  -6.2799949927604802e-06  3.2239916998964190e-04  1.1563572874464583e-03  2.7837729856794897e-03  5.3440306572188848e-03  8.5158817973105157e-03  1.1452197748948376e-02  1.2818834464228046e-02  1.1924804712567669e-02  8.2857973891622728e-03  5.7576761501316985e-03  -6.8993456633461899e-03  9.3639545032012647e-02  0.0000000000000000e+00  1.5587519156652674e-01  2.3905680565007967e-01  2.3619718134649831e-01  1.8038627950154176e-01  1.1332620301992274e-01  6.0390693624738270e-02  2.7776571106960642e-02  1.1123700602444841e-02  3.8640278309247413e-03  1.1175186957231794e-03  2.1178234439573219e-04  -4.2559378018566031e-05  -9.3944648343375833e-05  -8.4880622759255596e-05  -4.1536930385369024e-05  6.6387319421987016e-05  3.2184059901106758e-04  8.7357975075175642e-04  1.9367965082086737e-03  3.7427354263715475e-03  6.4187788885258909e-03  9.7863729137999157e-03  1.3221337190150222e-02  1.5662802863798678e-02  1.6005343176850175e-02  1.3802849425549563e-02  9.3074642357873754e-03  5.5922483961521711e-03  -3.8537669906811190e-03  5.8458706973193691e-02  0.0000000000000000e+00  1.3873819191681669e-01  2.2255294791033292e-01  2.3728485989270579e-01  2.0199407093777236e-01  1.4664414016229438e-01  9.4186393026129800e-02  5.5013350791789005e-02  2.9991321859439628e-02  1.5710484235229874e-02  8.1969597341117161e-03  4.4612311663805035e-03  2.6829556206342600e-03  1.8969430066592111e-03  1.6497368975527794e-03  1.7693782167692413e-03  2.2418908948645599e-03  3.1493361988525624e-03  4.6273426765848771e-03  6.8078392422713171e-03  9.7305159925206112e-03  1.3217890973677739e-02  1.6777931870055822e-02  1.9579380028603266e-02  2.0667858152060892e-02  1.9298352114729668e-02  1.5528417563788538e-02  1.0063359075792686e-02  5.4250695512169846e-03  -1.6910786509476818e-03  3.4267420762362756e-02  0.0000000000000000e+00  1.2040818491817963e-01  2.0172174111928742e-01  2.3091334569856978e-01  2.1699793222325028e-01  1.7883442313848261e-01  1.3415789242417758e-01  9.4194345503270022e-02  6.3474016868334732e-02  4.2107293345784558e-02  2.8242568025690269e-02  1.9687127426079445e-02  1.4640405727274293e-02  1.1862324215837133e-02  1.0593954855840970e-02  1.0417036003247261e-02  1.1126995800223331e-02  1.2631353700347188e-02  1.4863135078077532e-02  1.7698868225601988e-02  2.0878180701077987e-02  2.3950418492597311e-02  2.6267605232929186e-02  2.7096859882586675e-02  2.5815988190640633e-02  2.2225600876378579e-02  1.6767550856697792e-02  1.0465833331377751e-02  5.1827713234899155e-03  -2.4832288015586094e-04  1.8496700253237037e-02  0.0000000000000000e+00  1.0116170249203355e-01  1.7618524230307575e-01  2.1501522800106326e-01  2.2041766963271167e-01  2.0241786140961351e-01  1.7245970708714933e-01  1.3972801059916026e-01  1.0988209227598962e-01  8.5443093695095215e-02  6.6839221148619066e-02  5.3428623521640892e-02  4.4212510160090930e-02  3.8219293656534925e-02  3.4653015578546942e-02  3.2908296940802662e-02  3.2525547765634655e-02  3.3126479988399578e-02  3.4350803298223063e-02  3.5803666137969363e-02  3.7027922409480052e-02  3.7507244711196541e-02  3.6726457220585408e-02  3.4270212717535720e-02  2.9978279421654302e-02  2.4064809144828218e-02  1.7194989229234865e-02  1.0356164304873912e-02  4.8451187536061643e-03  5.5562013760194345e-04  8.9200907857045902e-03  0.0000000000000000e+00  8.0565813966126318e-02  1.4528060184731031e-01  1.8730761219469838e-01  2.0659265674355198e-01  2.0731160623246700e-01  1.9539927332371868e-01  1.7662321027503533e-01  1.5553185590275986e-01  1.3514729811140339e-01  1.1712904896856674e-01  1.0213473697277767e-01  9.0191945538627596e-02  8.0990349667132283e-02  7.4073368657055966e-02  6.8943760988089978e