<?xml version="1.0"?>
<VTKFile type="UnstructuredGrid"  version="0.1"  >
<UnstructuredGrid>
<Piece  NumberOfPoints="961" NumberOfCells="1800">
<Points>
<DataArray  type="Float64"  NumberOfComponents="3"  format="ascii">-1 -1 0  -0.9333333333333333 -1 0  -0.8666666666666667 -1 0  -0.8 -1 0  -0.7333333333333334 -1 0  -0.6666666666666667 -1 0  -0.6 -1 0  -0.5333333333333333 -1 0  -0.4666666666666667 -1 0  -0.4 -1 0  -0.3333333333333334 -1 0  -0.2666666666666667 -1 0  -0.2 -1 0  -0.1333333333333333 -1 0  -0.06666666666666665 -1 0  0 -1 0  0.06666666666666665 -1 0  0.1333333333333333 -1 0  0.2 -1 0  0.2666666666666666 -1 0  0.3333333333333333 -1 0  0.3999999999999999 -1 0  0.4666666666666666 -1 0  0.5333333333333334 -1 0  0.6000000000000001 -1 0  0.6666666666666667 -1 0  0.7333333333333334 -1 0  0.8 -1 0  0.8666666666666667 -1 0  0.9333333333333333 -1 0  1 -1 0  -1 -0.9333333333333333 0  -0.9333333333333333 -0.9333333333333333 0  -0.8666666666666667 -0.9333333333333333 0  -0.8 -0.9333333333333333 0  -0.7333333333333334 -0.9333333333333333 0  -0.6666666666666667 -0.9333333333333333 0  -0.6 -0.9333333333333333 0  -0.5333333333333333 -0.9333333333333333 0  -0.4666666666666667 -0.9333333333333333 0  -0.4 -0.9333333333333333 0  -0.3333333333333334 -0.9333333333333333 0  -0.2666666666666667 -0.9333333333333333 0  -0.2 -0.9333333333333333 0  -0.1333333333333333 -0.9333333333333333 0  -0.06666666666666665 -0.9333333333333333 0  0 -0.9333333333333333 0  0.06666666666666665 -0.9333333333333333 0  0.1333333333333333 -0.9333333333333333 0  0.2 -0.9333333333333333 0  0.2666666666666666 -0.9333333333333333 0  0.3333333333333333 -0.9333333333333333 0  0.3999999999999999 -0.9333333333333333 0  0.4666666666666666 -0.9333333333333333 0  0.5333333333333334 -0.9333333333333333 0  0.6000000000000001 -0.9333333333333333 0  0.6666666666666667 -0.9333333333333333 0  0.7333333333333334 -0.9333333333333333 0  0.8 -0.9333333333333333 0  0.8666666666666667 -0.9333333333333333 0  0.9333333333333333 -0.9333333333333333 0  1 -0.9333333333333333 0  -1 -0.8666666666666667 0  -0.9333333333333333 -0.8666666666666667 0  -0.8666666666666667 -0.8666666666666667 0  -0.8 -0.8666666666666667 0  -0.7333333333333334 -0.8666666666666667 0  -0.6666666666666667 -0.8666666666666667 0  -0.6 -0.8666666666666667 0  -0.5333333333333333 -0.8666666666666667 0  -0.4666666666666667 -0.8666666666666667 0  -0.4 -0.8666666666666667 0  -0.3333333333333334 -0.8666666666666667 0  -0.2666666666666667 -0.8666666666666667 0  -0.2 -0.8666666666666667 0  -0.1333333333333333 -0.8666666666666667 0  -0.06666666666666665 -0.8666666666666667 0  0 -0.8666666666666667 0  0.06666666666666665 -0.8666666666666667 0  0.1333333333333333 -0.8666666666666667 0  0.2 -0.8666666666666667 0  0.2666666666666666 -0.8666666666666667 0  0.3333333333333333 -0.8666666666666667 0  0.3999999999999999 -0.8666666666666667 0  0.4666666666666666 -0.8666666666666667 0  0.5333333333333334 -0.8666666666666667 0  0.6000000000000001 -0.8666666666666667 0  0.6666666666666667 -0.8666666666666667 0  0.7333333333333334 -0.8666666666666667 0  0.8 -0.8666666666666667 0  0.8666666666666667 -0.8666666666666667 0  0.9333333333333333 -0.8666666666666667 0  1 -0.8666666666666667 0  -1 -0.8 0  -0.9333333333333333 -0.8 0  -0.8666666666666667 -0.8 0  -0.8 -0.8 0  -0.7333333333333334 -0.8 0  -0.6666666666666667 -0.8 0  -0.6 -0.8 0  -0.5333333333333333 -0.8 0  -0.4666666666666667 -0.8 0  -0.4 -0.8 0  -0.3333333333333334 -0.8 0  -0.2666666666666667 -0.8 0  -0.2 -0.8 0  -0.1333333333333333 -0.8 0  -0.06666666666666665 -0.8 0  0 -0.8 0  0.06666666666666665 -0.8 0  0.1333333333333333 -0.8 0  0.2 -0.8 0  0.2666666666666666 -0.8 0  0.3333333333333333 -0.8 0  0.3999999999999999 -0.8 0  0.4666666666666666 -0.8 0  0.5333333333333334 -0.8 0  0.6000000000000001 -0.8 0  0.6666666666666667 -0.8 0  0.7333333333333334 -0.8 0  0.8 -0.8 0  0.8666666666666667 -0.8 0  0.9333333333333333 -0.8 0  1 -0.8 0  -1 -0.7333333333333334 0  -0.9333333333333333 -0.7333333333333334 0  -0.8666666666666667 -0.7333333333333334 0  -0.8 -0.7333333333333334 0  -0.7333333333333334 -0.7333333333333334 0  -0.6666666666666667 -0.7333333333333334 0  -0.6 -0.7333333333333334 0  -0.5333333333333333 -0.7333333333333334 0  -0.4666666666666667 -0.7333333333333334 0  -0.4 -0.7333333333333334 0  -0.3333333333333334 -0.7333333333333334 0  -0.2666666666666667 -0.7333333333333334 0  -0.2 -0.7333333333333334 0  -0.1333333333333333 -0.7333333333333334 0  -0.06666666666666665 -0.7333333333333334 0  0 -0.7333333333333334 0  0.06666666666666665 -0.7333333333333334 0  0.1333333333333333 -0.7333333333333334 0  0.2 -0.7333333333333334 0  0.2666666666666666 -0.7333333333333334 0  0.3333333333333333 -0.7333333333333334 0  0.3999999999999999 -0.7333333333333334 0  0.4666666666666666 -0.7333333333333334 0  0.5333333333333334 -0.7333333333333334 0  0.6000000000000001 -0.7333333333333334 0  0.6666666666666667 -0.7333333333333334 0  0.7333333333333334 -0.7333333333333334 0  0.8 -0.7333333333333334 0  0.8666666666666667 -0.7333333333333334 0  0.9333333333333333 -0.7333333333333334 0  1 -0.7333333333333334 0  -1 -0.6666666666666667 0  -0.9333333333333333 -0.6666666666666667 0  -0.8666666666666667 -0.6666666666666667 0  -0.8 -0.6666666666666667 0  -0.7333333333333334 -0.6666666666666667 0  -0.6666666666666667 -0.6666666666666667 0  -0.6 -0.6666666666666667 0  -0.5333333333333333 -0.6666666666666667 0  -0.4666666666666667 -0.6666666666666667 0  -0.4 -0.6666666666666667 0  -0.3333333333333334 -0.6666666666666667 0  -0.2666666666666667 -0.6666666666666667 0  -0.2 -0.6666666666666667 0  -0.1333333333333333 -0.6666666666666667 0  -0.06666666666666665 -0.6666666666666667 0  0 -0.6666666666666667 0  0.06666666666666665 -0.6666666666666667 0  0.1333333333333333 -0.6666666666666667 0  0.2 -0.6666666666666667 0  0.2666666666666666 -0.6666666666666667 0  0.3333333333333333 -0.6666666666666667 0  0.3999999999999999 -0.6666666666666667 0  0.4666666666666666 -0.6666666666666667 0  0.5333333333333334 -0.6666666666666667 0  0.6000000000000001 -0.6666666666666667 0  0.6666666666666667 -0.6666666666666667 0  0.7333333333333334 -0.6666666666666667 0  0.8 -0.6666666666666667 0  0.8666666666666667 -0.6666666666666667 0  0.9333333333333333 -0.6666666666666667 0  1 -0.6666666666666667 0  -1 -0.6 0  -0.9333333333333333 -0.6 0  -0.8666666666666667 -0.6 0  -0.8 -0.6 0  -0.7333333333333334 -0.6 0  -0.6666666666666667 -0.6 0  -0.6 -0.6 0  -0.5333333333333333 -0.6 0  -0.4666666666666667 -0.6 0  -0.4 -0.6 0  -0.3333333333333334 -0.6 0  -0.2666666666666667 -0.6 0  -0.2 -0.6 0  -0.1333333333333333 -0.6 0  -0.06666666666666665 -0.6 0  0 -0.6 0  0.06666666666666665 -0.6 0  0.1333333333333333 -0.6 0  0.2 -0.6 0  0.2666666666666666 -0.6 0  0.3333333333333333 -0.6 0  0.3999999999999999 -0.6 0  0.4666666666666666 -0.6 0  0.5333333333333334 -0.6 0  0.6000000000000001 -0.6 0  0.6666666666666667 -0.6 0  0.7333333333333334 -0.6 0  0.8 -0.6 0  0.8666666666666667 -0.6 0  0.9333333333333333 -0.6 0  1 -0.6 0  -1 -0.5333333333333333 0  -0.9333333333333333 -0.5333333333333333 0  -0.8666666666666667 -0.5333333333333333 0  -0.8 -0.5333333333333333 0  -0.7333333333333334 -0.5333333333333333 0  -0.6666666666666667 -0.5333333333333333 0  -0.6 -0.5333333333333333 0  -0.5333333333333333 -0.5333333333333333 0  -0.4666666666666667 -0.5333333333333333 0  -0.4 -0.5333333333333333 0  -0.3333333333333334 -0.5333333333333333 0  -0.2666666666666667 -0.5333333333333333 0  -0.2 -0.5333333333333333 0  -0.1333333333333333 -0.5333333333333333 0  -0.06666666666666665 -0.5333333333333333 0  0 -0.5333333333333333 0  0.06666666666666665 -0.5333333333333333 0  0.1333333333333333 -0.5333333333333333 0  0.2 -0.5333333333333333 0  0.2666666666666666 -0.5333333333333333 0  0.3333333333333333 -0.5333333333333333 0  0.3999999999999999 -0.5333333333333333 0  0.4666666666666666 -0.5333333333333333 0  0.5333333333333334 -0.5333333333333333 0  0.6000000000000001 -0.5333333333333333 0  0.6666666666666667 -0.5333333333333333 0  0.7333333333333334 -0.5333333333333333 0  0.8 -0.5333333333333333 0  0.8666666666666667 -0.5333333333333333 0  0.9333333333333333 -0.5333333333333333 0  1 -0.5333333333333333 0  -1 -0.4666666666666667 0  -0.9333333333333333 -0.4666666666666667 0  -0.8666666666666667 -0.4666666666666667 0  -0.8 -0.4666666666666667 0  -0.7333333333333334 -0.4666666666666667 0  -0.6666666666666667 -0.4666666666666667 0  -0.6 -0.4666666666666667 0  -0.5333333333333333 -0.4666666666666667 0  -0.4666666666666667 -0.4666666666666667 0  -0.4 -0.4666666666666667 0  -0.3333333333333334 -0.4666666666666667 0  -0.2666666666666667 -0.4666666666666667 0  -0.2 -0.4666666666666667 0  -0.1333333333333333 -0.4666666666666667 0  -0.06666666666666665 -0.4666666666666667 0  0 -0.4666666666666667 0  0.06666666666666665 -0.4666666666666667 0  0.1333333333333333 -0.4666666666666667 0  0.2 -0.4666666666666667 0  0.2666666666666666 -0.4666666666666667 0  0.3333333333333333 -0.4666666666666667 0  0.3999999999999999 -0.4666666666666667 0  0.4666666666666666 -0.4666666666666667 0  0.5333333333333334 -0.4666666666666667 0  0.6000000000000001 -0.4666666666666667 0  0.6666666666666667 -0.4666666666666667 0  0.7333333333333334 -0.4666666666666667 0  0.8 -0.4666666666666667 0  0.8666666666666667 -0.4666666666666667 0  0.9333333333333333 -0.4666666666666667 0  1 -0.4666666666666667 0  -1 -0.4 0  -0.9333333333333333 -0.4 0  -0.8666666666666667 -0.4 0  -0.8 -0.4 0  -0.7333333333333334 -0.4 0  -0.6666666666666667 -0.4 0  -0.6 -0.4 0  -0.5333333333333333 -0.4 0  -0.4666666666666667 -0.4 0  -0.4 -0.4 0  -0.3333333333333334 -0.4 0  -0.2666666666666667 -0.4 0  -0.2 -0.4 0  -0.1333333333333333 -0.4 0  -0.06666666666666665 -0.4 0  0 -0.4 0  0.06666666666666665 -0.4 0  0.1333333333333333 -0.4 0  0.2 -0.4 0  0.2666666666666666 -0.4 0  0.3333333333333333 -0.4 0  0.3999999999999999 -0.4 0  0.4666666666666666 -0.4 0  0.5333333333333334 -0.4 0  0.6000000000000001 -0.4 0  0.6666666666666667 -0.4 0  0.7333333333333334 -0.4 0 
[...]
<PointData  Scalars="f_24"> 
<DataArray  type="Float64"  Name="f_24"  format="ascii">0.0000000000000000e+00  0.0000000000000000e+00  0.0000000000000000e+00  0.0000000000000000e+00  0.0000000000000000e+00  0.0000000000000000e+00  0.0000000000000000e+00  0.0000000000000000e+00  0.0000000000000000e+00  0.0000000000000000e+00  0.0000000000000000e+00  0.0000000000000000e+00  0.0000000000000000e+00  0.0000000000000000e+00  0.0000000000000000e+00  0.0000000000000000e+00  0.0000000000000000e+00  0.0000000000000000e+00  0.0000000000000000e+00  0.0000000000000000e+00  0.0000000000000000e+00  0.0000000000000000e+00  0.0000000000000000e+00  0.0000000000000000e+00  0.0000000000000000e+00  0.0000000000000000e+00  0.0000000000000000e+00  0.0000000000000000e+00  0.0000000000000000e+00  0.0000000000000000e+00  1.5295959709329599e+01  0.0000000000000000e+00  -8.1273275003356026e-10  -7.7888548531072034e-08  -4.8157820418079060e-07  -1.7563693328075730e-06  -4.8447762805495805e-06  -1.1181046740498697e-05  -2.2757418971617988e-05  -4.2119204286974463e-05  -7.2193578793780161e-05  -1.1575807260196995e-04  -1.7416311303047785e-04  -2.4455058582008397e-04  -3.1408361532580408e-04  -3.4827626795472824e-04  -2.6769385358418717e-04  9.8307180796621332e-05  1.1033189617274896e-03  3.4660045978073071e-03  8.6321310847108351e-03  1.9493973681976650e-02  4.1813696801281636e-02  8.7008415129997185e-02  1.7748008345489849e-01  3.5640990609052425e-01  7.0448758171664616e-01  1.3648545717605458e+00  2.5712985786540563e+00  4.6624503469656347e+00  8.0711067919817090e+00  1.3356224295276974e+01  0.0000000000000000e+00  -6.2200221243492434e-09  -1.3039936598800729e-07  -6.9844034681068749e-07  -2.3329937098724874e-06  -5.9635855410445267e-06  -1.2809188301648773e-05  -2.4360901417141292e-05  -4.2393465523689745e-05  -6.9039380261710386e-05  -1.0697695514907978e-04  -1.5982033568778540e-04  -2.3286669706885698e-04  -3.3446849928761959e-04  -4.7846940157689319e-04  -6.8835039732808461e-04  -1.0038166904419012e-03  -1.4898762246039843e-03  -2.2449055362968599e-03  -3.3914289050028250e-03  -4.9936969139296235e-03  -6.7341914340289522e-03  -6.8910193884590123e-03  5.2307222726131737e-04  3.2995291169485977e-02  1.3592996495617071e-01  4.1518821339055917e-01  1.0908936863219985e+00  2.5701696413457968e+00  5.5604349636806107e+00  1.1607102976663821e+01  0.0000000000000000e+00  -1.0149797210860330e-08  -1.4015391728692364e-07  -6.5731339891803034e-07  -1.9652144929013543e-06  -4.4900881834230146e-06  -8.5662514853742502e-06  -1.4365164851772897e-05  -2.1886561083437287e-05  -3.1011948343073170e-05  -4.1617561222674234e-05  -5.3752608267857154e-05  -6.7911925872317272e-05  -8.5481882986814800e-05  -1.0954962206447006e-04  -1.4652601247237856e-04  -2.0964782307596731e-04  -3.2684699564479040e-04  -5.5857191721996437e-04  -1.0370149688523193e-03  -2.0455570177726409e-03  -4.1496111657169134e-03  -8.2911554834759447e-03  -1.5316530196332301e-02  -2.2991756717401401e-02  -1.5117306716344306e-02  6.8572550231821017e-02  3.9858482407599144e-01  1.3757027154644392e+00  3.8633974968938998e+00  1.0035679165291150e+01  0.0000000000000000e+00  -1.1614232239774876e-08  -1.2167855862840183e-07  -4.9737846483322611e-07  -1.3026072538618172e-06  -2.5717002008651812e-06  -4.1515846960746411e-06  -5.7297566734998337e-06  -6.9161500279218531e-06  -7.3315061994877234e-06  -6.6643189437212160e-06  -4.6727174789802139e-06  -1.1159034336261355e-06  4.4043679845575048e-06  1.2732211953985549e-05  2.5655803430118429e-05  4.6743854571303373e-05  8.2610100155589670e-05  1.4409651389946822e-04  2.4385716657258487e-04  3.7550223736909709e-04  4.2636940728505405e-04  -8.6916323708284074e-05  -2.5597879592571316e-03  -9.5396127170472213e-03  -2.0972951680396909e-02  -1.4329295032708595e-02  1.1760878790485063e-01  7.1348682139984920e-01  2.6739418043351506e+00  8.6294894865809919e+00  0.0000000000000000e+00  -1.1057022158739486e-08  -9.2605323586068272e-08  -3.2839846167754026e-07  -7.4017240951686839e-07  -1.2225820638778639e-06  -1.5787519619814390e-06  -1.6171908114749692e-06  -1.2402960121542762e-06  -4.8061178137969275e-07  5.1792136644766247e-07  1.5505754154586919e-06  2.4043246159591696e-06  2.8881801619855449e-06  2.8288727064219520e-06  2.0378303206652911e-06  3.0300902999804435e-07  -2.3855238393032929e-06  -4.6848062806214261e-06  8.8901129331436053e-08  3.4184906333863567e-05  1.4808065547729284e-04  3.7350419469027902e-04  3.5811240578503280e-04  -1.7769155273078588e-03  -1.0453883734810111e-02  -2.4827916855019144e-02  7.4893191102129390e-03  3.3936160106193120e-01  1.8278496886670170e+00  7.3765237795763898e+00  0.0000000000000000e+00  -9.3594824276352072e-09  -6.4459674972576152e-08  -1.9783483418557457e-07  -3.7833009348147364e-07  -5.0559524777233067e-07  -4.8217619571659745e-07  -2.8700613201946039e-07  8.6202099547139736e-09  2.8213859669840307e-07  4.2040799889711433e-07  3.6371581120038394e-07  1.1745227104147782e-07  -2.6398818741901519e-07  -7.0726599544965949e-07  -1.1539688711171276e-06  -1.6064812927885630e-06  -2.2340576880924712e-06  -3.6361435222860163e-06  -7.1487956053334651e-06  -1.2926711591060700e-05  -4.3599135307982287e-06  1.0395496069337177e-04  4.8767461055903476e-04  8.4434219707972210e-04  -1.8803425851516536e-03  -1.4429758346784075e-02  -2.2188370768775032e-02  1.4055660073563470e-01  1.2300440519152878e+00  6.2652250969414052e+00  0.0000000000000000e+00  -7.2969096310056643e-09  -4.2120891885693522e-08  -1.1189059736949760e-07  -1.7952792393482151e-07  -1.8673534484359028e-07  -1.1294444988277747e-07  2.2906905345040205e-09  9.1296534708194841e-08  1.0754571381064304e-07  5.1969593660508213e-08  -3.4633496046702051e-08  -9.8739459376681791e-08  -1.0001577500769245e-07  -2.3188518192466127e-08  1.2590343114011430e-07  3.3491292237176015e-07  5.9965133498602271e-07  8.8764354026904927e-07  7.3766466485321870e-07  -2.7466208704564290e-06  -1.9174205613677898e-05  -5.1366830163074896e-05  1.1747493451492737e-05  4.8583757887058193e-04  6.2717411740980170e-04  -5.7263481588733772e-03  -2.3610083517424968e-02  3.8328332622360593e-02  8.0603692030218443e-01  5.2844897049611150e+00  0.0000000000000000e+00  -5.3542229289820407e-09  -2.6292722424160516e-08  -6.0602179545950986e-08  -8.0909058936464259e-08  -6.2286458126167265e-08  -1.4465918325743951e-08  2.6911390687788418e-08  3.5173396095693415e-08  1.3389837344333973e-08  -1.4049562745489529e-08  -2.4109018054253929e-08  -1.1052430218589166e-08  1.3063527057224697e-08  2.8608400946117901e-08  1.9880487628683275e-08  -1.7646286464083442e-08  -6.9402250615311026e-08  -5.9586551979771257e-08  3.4931916130737537e-07  2.1471791562615440e-06  4.7578474911694312e-06  -6.9498992521748187e-06  -4.8327618081518563e-05  9.0307314133741508e-05  8.2730516673133183e-04  -7.4038047707434824e-04  -1.5895778482152078e-02  -7.7471481046995716e-03  5.1001176150943250e-01  4.4236670835416243e+00  0.0000000000000000e+00  -3.7507314314662156e-09  -1.5869595660496949e-08  -3.1890768302688616e-08  -3.5255674513610581e-08  -1.8655716976452621e-08  3.8901270833402255e-09  1.3680292735083400e-08  7.3661864730352284e-09  -3.4620705254896855e-09  -7.0856420906030419e-09  -2.1662831503493302e-09  4.1456898029122406e-09  4.8235213015791667e-09  -8.5968517899805018e-10  -7.5985691910627013e-09  -9.2242786299077936e-09  -7.2440871163531654e-09  -3.1200668405484177e-08  -1.8850098483784687e-07  -4.8299776167125244e-07  7.7904424477240041e-07  4.6308913421372745e-06  -1.7632943434748845e-05  -7.2120521454453260e-05  3.2034170670549331e-04  8.4995783891890324e-04  -8.2406941154188427e-03  -2.4529746978323094e-02  3.0511548855965753e-01  3.6725599262100359e+00  0.0000000000000000e+00  -2.5328021502719477e-09  -9.3410260796613666e-09  -1.6482796510873500e-08  -1.5085141291469865e-08  -4.8366998823223331e-09  4.1589982708350605e-09  4.7891736556243524e-09  2.7650578507609591e-10  -2.4319980816347972e-09  -1.1692371701779249e-09  1.0582458723012813e-09  1.2257717235045614e-09  -3.5145239026942695e-10  -1.2273172203541045e-09  8.3025873267790391e-11  2.7981667601560750e-09  6.1840627698297902e-09  1.7334388530126085e-08  5.2055120795033684e-08  -3.8742028149560025e-08  -6.1153016118720182e-07  1.7802556111543590e-06  7.6378884087353953e-06  -4.0044023436129900e-05  4.7225546577665797e-06  9.4365867279924492e-04  -2.7921719368033107e-03  -2.6224364404454019e-02  1.6697060794722723e-01  3.0214241401144903e+00  0.0000000000000000e+00  -1.6596215040236569e-09  -5.3939235254915854e-09  -8.4363022379944063e-09  -6.4327791936537483e-09  -9.4690815036760343e-10  2.2645031221137120e-09  1.3454743693578507e-09  -5.5745704448548696e-10  -7.7051945590462043e-10  1.1430184131506904e-10  4.4174562321416809e-10  -6.8832006773428404e-12  -3.0664947412512520e-10  -2.5172830869395385e-11  2.5324420727732652e-10  -2.2377107329652531e-10  -1.8119690924072655e-09  -6.1064487329238838e-09  -6.8095248241976403e-09  7.2261441882876152e-08  -2.0669931819240371e-08  -1.2007348087401669e-06  4.1663500320514653e-06  -1.8898071928481698e-06  -8.8136910966097205e-05  4.9507538477860805e-04  1.4672241877189903e-04  -2.1519994220277738e-02  7.6207888384212941e-02  2.4609688460241266e+00  0.0000000000000000e+00  -1.0597960646416711e-09  -3.0677900917822355e-09  -4.3021802813982257e-09  -2.7757584769873650e-09  -3.7019345859107505e-11  1.0239942069658958e-09  3.0939007546682954e-10  -3.3046649766871668e-10  -1.6120954594699151e-10  1.3507323481262443e-10  7.4939027599965681e-11  -7.6436309658957982e-11  -3.5633122396806414e-11  6.0469834070287805e-11  1.9228642074255912e-11  -1.7186405784007446e-11  3.6969767328525031e-10  1.8181458814383377e-09  -2.9061527505896726e-09  -2.5663926672465330e-08  1.3002987383946113e-07  -1.4356702376118230e-07  -1.0998381735728777e-06  1.1541852149401258e-05  -5.4996365186218179e-05  9.8174981923723103e-05  1.3000085938166511e-03  -1.4860535152241304e-02  1.9410781072876006e-02  1.9823563783291160e+00  0.0000000000000000e+00  -6.6127361412701406e-10  -1.7226760789110891e-09  -2.1953332690851085e-09  -1.2308059748585407e-09  9.2659235653071486e-11  4.3105448109860471e-10  5.5478136441322223e-11  -1.3513791060001514e-10  -1.9065364101651826e-11  5.1041401570267607e-11  -2.8431127803515751e-13  -2.2904304389918995e-11  7.7286384690268872e-12  1.0019093533616287e-11  -1.0787986297126210e-11  -9.0051735015843260e-12  -1.0844458430560242e-10  -4.4702090059900243e-10  3.1183735465844283e-09  -1.0009074274858928e-09  -4.3921471043255717e-08  2.7321700314182337e-07  -1.2785295797886501e-06  4.1308150655753186e-06  -3.6402288551542651e-06  -1.1396248036940151e-04  1.3580815900323133e-03  -8.5415524478281105e-03  -1.3841839618777592e-02  1.5772022850406389e+00  0.0000000000000000e+00  -4.0367143296496653e-10  -9.5611126590246736e-10  -1.1237561272702136e-09  -5.6849837494705832e-10  6.4970168866657332e-11  1.7843871646910153e-10  7.3856677048091326e-12  -4.8653409195231244e-11  1.2799816559694611e-12  1.4641841445408084e-11  -4.7264530695145127e-12  -2.4911767007393488e-12  1.1194117062658244e-12  3.0758991883051466e-12  -3.6261551021439721e-12  -1.2836788292574731e-11  1.4258510737708605e-10  -2.8064933483245957e-10  -7.1603669966782001e-10  4.9603390959652743e-09  -1.6395071862188278e-08  2.5348655191181130e-08  1.9572146070074724e-07  -2.4873056789238783e-06  2.0856036859228626e-05  -1.4908129358128731e-04  9.2614258332167777e-04  -3.5213764234090007e-03  -3.0946670262752357e-02  1.2375753277908945e+00  0.0000000000000000e+00  -2.4109564556020333e-10  -5.2443961412869720e-10  -5.7742358761129939e-10  -2.7575509235564323e-10  2.8827400053197479e-11  7.4804951835611817e-11  2.3669935441191750e-12  -1.7324638020635972e-11  1.7216888303555650e-12  3.5034291983118678e-12  -3.5332793419986008e-12  1.0541724230280995e-11  -3.8055322213540581e-11  1.1829203444346464e-10  -3.3712442936241601e-10  9.2232288000267415e-10  -2.5010336101691325e-09  6.6491756516459333e-09  -1.6937263552339934e-08  4.0761043071247350e-08  -8.6679971031244829e-08  1.3264149774236549e-07  6.5106852057710268e-08  -2.0742533671917527e-06  1.4616115361928222e-05  -8.2599720857931208e-05  3.6495322300747289e-04  -2.8564148953212553e-05  -3.7471310275409321e-02  9.5599748183309996e-01  0.0000000000000000e+00  -1.4073948527205050e-10  -2.8395092197454857e-10  -2.9745164334533011e-10  -1.4036178144908347e-10  7.5510242737980726e-12  3.2048540143718398e-11  2.9189959312609713e-12  -7.1262871227236574e-12  3.2276651581684871e-12  -4.6945896862868119e-12  3.4770523763847975e-12  2.2872237769380915e-11  -1.4204571859204319e-10  5.5530102262855234e-10  -1.8195388234305854e-09  5.3897578452051826e-09  -1.4864662907888070e-08  3.8687235946318351e-08  -9.5664034844382191e-08  2.2564052422318775e-07  -5.1006691779125948e-07  1.1074598567146894e-06  -2.2964186404189675e-06  4.4503676273920477e-06  -7.6788451373744917e-06  1.4036801162711802e-05  -1.1074297527739056e-04  2.0591256742530590e-03  -3.7374786562191141e-02  7.2544393604148882e-01  0.0000000000000000e+00  -8.0132623453092039e-11  -1.5140609184753414e-10  -1.5309672855340864e-10  -7.4277409813398088e-11  -1.8877702392321435e-12  1.4032139811809924e-11  2.1872970374762445e-12  -2.8136947157029627e-12  5.5375032606425494e-12  -1.6970867435442480e-11  3.1580087523916387e-11  -1.3615603404829994e-11  -1.8233739043050992e-10  1.0191862324957750e-09  -3.7726128989775154e-09  1.1623121071850539e-08  -3.1940466330812387e-08  8.1008138305735130e-08  -1.9405061231692327e-07  4.4742414353960960e-07  -1.0097571528852829e-06  2.2670409593660987e-06  -5.1550116101828991e-06  1.2170670040660061e-05  -3.1253157136400002e-05  9.6389815478287709e-05  -4.2420987181479857e-04  3.0308673373060104e-03  -3.3511905325090602e-02  5.3934309291131199e-01  0.0000000000000000e+00  -4.4361386531183047e-11  -7.9211820085977031e-11  -7.8312244226600276e-11  -4.0286726732238199e-11  -4.6625803780366187e-12  5.9754634988694057e-12  3.3673517620768988e-13  1.9215989607512110e-12  9.4962830542727709e-13  -1.8289106195899517e-11  6.0668245617067687e-11  -1.1706983285424513e-10  6.4269455929349299e-11  5.7643693175855682e-10  -3.2164156188746004e-09  1.1486262819824790e-08  -3.4053032728774387e-08  9.0785201243385114e-08  -2.2634470130577813e-07  5.4090090762572017e-07  -1.2630166559973139e-06  2.9351777842433536e-06  -6.9326240348090317e-06  1.7104485671684595e-05  -4.5894061105597509e-05  1.4275338491461854e-04  -5.6685743932586360e-04  3.2088186478130033e-03  -2.7850612426528251e-02  3.9157656855883782e-01  0.0000000000000000e+00  -2.3768984586967496e-11  -4.0446844736157536e-11  -3.9557937986524267e-11  -2.1965665147598400e-11  -4.3736950562562689e-12  1.6233361327442703e-12  -3.1623047658113138e-14  4.8978472159265195e-12  -9.7950736591149009e-12  6.8580691613109117e-12  2.8969504922527727e-11  -1.4211591214429909e-10  3.6304924932399096e-10  -5.6506254430773128e-10  2.9508442662388679e-11  3.6834258761680397e-09  -1.7422794901344111e-08  5.8593845767197229e-08  -1.6918819091051954e-07  4.4856678679513983e-07  -1.1332829803964962e-06  2.8035281638695616e-06  -6.9631878437121791e-06  1.7859669429210984e-05  -4.9071849998553332e-05  1.5215077875346979e-04  -5.7342776902558643e-04  2.8928667212659424e-03  -2.1712545551679528e-02  2.7647919272135152e-01  0.0000000000000000e+00  -1.2245484787266893e-11  -2.0025693335221980e-11  -1.9575958039723502e-11  -1.1706223548637603e-11  -3.3479943024584723e-12  -6.5238746711232563e-13  1.7319421905096179e-12  1.0465546471621573e-12  -9.7124225138353783e-12  2.8812892038184286e-11  -4.8538678397112565e-11  1.9118574725496187e-11  1.8463600582159979e-10  -7.6546204435426070e-10  1.8436361888053103e-09  -2.8192851795652816e-09  5.2226538525444243e-10  1.5545925999287770e-08  -7.4863438924534808e-08  2.5426813090593097e-07  -7.4898683944419208e-07  2.0598164352941082e-06  -5.5238333469580070e-06  1.4972242824952269e-05  -4.2607299917431738e-05  1.3353059438639791e-04  -4.9189195618419199e-04  2.3280188044701067e-03  -1.5925838265917799e-02  1.8883900875715565e-01  0.0000000000000000e+00  -6.0144794455769632e-12  -9.5386852592686481e-12  -9.3599103257454412e-12  -5.9610650868141463e-12  -2.5282628787491570e-12  -7.1670614940566364e-13  2.0973556262333717e-12  -4.6152199981190803e-12  5.3591566014951548e-12  7.1904823172429850e-12  -5.1436738918797363e-11  1.3833411737103801e-10  -2.2293271545298886e-10  1.1307956086879948e-10  6.3142123461085453e-10  -2.6447989840658324e-09  6.0645393181849177e-09  -7.9807995095996951e-09  -4.9960758377871802e-09  7.6688665828468151e-08  -3.3413062975811079e-07  1.1310315450768230e-06  -3.4612441047568260e-06  1.0256610807192249e-05  -3.0951141982197181e-05  1.0009695190588427e-04  -3.6947651912006723e-04  1.6958913106796519e-03  -1.0957683781795916e-02  1.2389727364556982e-01  0.0000000000000000e+00  -2.7871862588632522e-12  -4.3179942740198555e-12  -4.2331713203952654e-12  -2.9398806684218229e-12  -1.6814935552677979e-12  1.3679418029130684e-13  -4.3108636046244973e-13  -2.2837692994033528e-12  1.0393063981670035e-11  -2.2944620379983330e-11  2.5523568256243439e-11  2.2506544197559313e-11  -1.8402676171361652e-10  4.8734137758541237e-10  -7.6962125969547015e-10  4.1089576057161652e-10  1.8904983219076270e-09  -7.6907003463444180e-09  1.5923601165738569e-08  -1.2663431611088483e-08  -6.0033418382651898e-08  3.9558683945204378e-07  -1.5978039801162350e-06  5.5621556440807963e-06  -1.8594112714255459e-05  6.4037414996770628e-05  -2.4351108587910403e-04  1.1157835866811468e-03  -7.0120634161246077e-03  7.7348457986930963e-02  0.0000000000000000e+00  -1.2012467826426045e-12  -1.8183131788620127e-12  -1.7853204912583941e-12  -1.4248978544022549e-12  -7.0639535742584173e-13  -6.3277662548778951e-15  -1.6156022928361664e-12  3.2465439944498870e-12  -2.5228239475393960e-12  -8.3135662516349277e-12  3.8919277519338629e-11  -8.6243918020544379e-11  1.0447818994032268e-10  2.5199198618314645e-11  -4.6999142013606456e-10  1.2636551421933596e-09  -1.8556616505474566e-09  4.2183947288404966e-10  6.4698564710052383e-09  -2.1551151024963885e-08  3.4674671869817646e-08  2.1592619920853564e-08  -4.2092210166146697e-07  2.1498105571772910e-06  -8.7560909495441407e-06  3.3926548691104677e-05  -1.3816074884029296e-04  6.5281421600540772e-04  -4.1094262502244603e-03  4.5340246002593010e-02  0.0000000000000000e+00  -4.7015960547407537e-13  -6.9144941759848332e-13  -7.0907855624270877e-13  -5.9509498818605099e-13  -1.5319910545339057e-13  -6.4673867800997522e-13  2.5959476972835230e-13  1.4345282029617365e-12  -6.6158844176787904e-12  1.4177920964226174e-11  -1.4735367620218120e-11  -1.4268351016207712e-11  9.9086365462883439e-11  -2.2845231335171886e-10  2.7689649723978165e-10  5.7516206373058488e-11  -1.1500117315059558e-09  2.9167262303240477e-09  -3.5990324206618571e-09  -1.8888441497140783e-09  2.1752448142180001e-08  -5.5909577360196066e-08  3.9493200793864238e-08  3.8460204402470778e-07  -2.7710584393342334e-06  1.3760742857024030e-05  -6.4343589579198359e-05  3.2855360914472390e-04  -2.1488261023240459e-03  2.4473535534927336e-02  0.0000000000000000e+00  -1.6062209600373527e-13  -2.3131303902445165e-13  -2.6156613823121212e-13  -1.4809686825657483e-13  -1.6988132054296046e-13  -3.1796962919095025e-13  9.8391258005204423e-13  -2.3046701960908291e-12  2.4240021428474325e-12  2.6063816968640434e-12  -1.7874894334911274e-11  4.1311338891743101e-11  -4.9060906123340497e-11  -1.3965390797576813e-11  2.0703844818185056e-10  -4.9112975316556826e-10  5.5320088622243318e-10  3.0299878682920219e-10  -2.8070153375248903e-09  6.2395004101531932e-09  -5.2222625916582464e-09  -1.4041459360288252e-08  6.8444126417820635e-08  -1.1804758628392799e-07  -2.5346685419285657e-07  3.4117380874965007e-06  -2.2057069759867092e-05  1.3314388090888935e-04  -9.5801130772656150e-04  1.1802438047322211e-02  0.0000000000000000e+00  -4.4990498499018582e-14  -6.7759381541030935e-14  -7.2847798656019082e-14  -1.6968120941481418e-14  -1.8875720400149618e