<?xml version="1.0"?>
<VTKFile type="UnstructuredGrid"  version="0.1"  >
<UnstructuredGrid>
<Piece  NumberOfPoints="961" NumberOfCells="1800">
<Points>
<DataArray  type="Float64"  NumberOfComponents="3"  format="ascii">-1 -1 0  -0.9333333333333333 -1 0  -0.8666666666666667 -1 0  -0.8 -1 0  -0.7333333333333334 -1 0  -0.6666666666666667 -1 0  -0.6 -1 0  -0.5333333333333333 -1 0  -0.4666666666666667 -1 0  -0.4 -1 0  -0.3333333333333334 -1 0  -0.2666666666666667 -1 0  -0.2 -1 0  -0.1333333333333333 -1 0  -0.06666666666666665 -1 0  0 -1 0  0.06666666666666665 -1 0  0.1333333333333333 -1 0  0.2 -1 0  0.2666666666666666 -1 0  0.3333333333333333 -1 0  0.3999999999999999 -1 0  0.4666666666666666 -1 0  0.5333333333333334 -1 0  0.6000000000000001 -1 0  0.6666666666666667 -1 0  0.7333333333333334 -1 0  0.8 -1 0  0.8666666666666667 -1 0  0.9333333333333333 -1 0  1 -1 0  -1 -0.9333333333333333 0  -0.9333333333333333 -0.9333333333333333 0  -0.8666666666666667 -0.9333333333333333 0  -0.8 -0.9333333333333333 0  -0.7333333333333334 -0.9333333333333333 0  -0.6666666666666667 -0.9333333333333333 0  -0.6 -0.9333333333333333 0  -0.5333333333333333 -0.9333333333333333 0  -0.4666666666666667 -0.9333333333333333 0  -0.4 -0.9333333333333333 0  -0.3333333333333334 -0.9333333333333333 0  -0.2666666666666667 -0.9333333333333333 0  -0.2 -0.9333333333333333 0  -0.1333333333333333 -0.9333333333333333 0  -0.06666666666666665 -0.9333333333333333 0  0 -0.9333333333333333 0  0.06666666666666665 -0.9333333333333333 0  0.1333333333333333 -0.9333333333333333 0  0.2 -0.9333333333333333 0  0.2666666666666666 -0.9333333333333333 0  0.3333333333333333 -0.9333333333333333 0  0.3999999999999999 -0.9333333333333333 0  0.4666666666666666 -0.9333333333333333 0  0.5333333333333334 -0.9333333333333333 0  0.6000000000000001 -0.9333333333333333 0  0.6666666666666667 -0.9333333333333333 0  0.7333333333333334 -0.9333333333333333 0  0.8 -0.9333333333333333 0  0.8666666666666667 -0.9333333333333333 0  0.9333333333333333 -0.9333333333333333 0  1 -0.9333333333333333 0  -1 -0.8666666666666667 0  -0.9333333333333333 -0.8666666666666667 0  -0.8666666666666667 -0.8666666666666667 0  -0.8 -0.8666666666666667 0  -0.7333333333333334 -0.8666666666666667 0  -0.6666666666666667 -0.8666666666666667 0  -0.6 -0.8666666666666667 0  -0.5333333333333333 -0.8666666666666667 0  -0.4666666666666667 -0.8666666666666667 0  -0.4 -0.8666666666666667 0  -0.3333333333333334 -0.8666666666666667 0  -0.2666666666666667 -0.8666666666666667 0  -0.2 -0.8666666666666667 0  -0.1333333333333333 -0.8666666666666667 0  -0.06666666666666665 -0.8666666666666667 0  0 -0.8666666666666667 0  0.06666666666666665 -0.8666666666666667 0  0.1333333333333333 -0.8666666666666667 0  0.2 -0.8666666666666667 0  0.2666666666666666 -0.8666666666666667 0  0.3333333333333333 -0.8666666666666667 0  0.3999999999999999 -0.8666666666666667 0  0.4666666666666666 -0.8666666666666667 0  0.5333333333333334 -0.8666666666666667 0  0.6000000000000001 -0.8666666666666667 0  0.6666666666666667 -0.8666666666666667 0  0.7333333333333334 -0.8666666666666667 0  0.8 -0.8666666666666667 0  0.8666666666666667 -0.8666666666666667 0  0.9333333333333333 -0.8666666666666667 0  1 -0.8666666666666667 0  -1 -0.8 0  -0.9333333333333333 -0.8 0  -0.8666666666666667 -0.8 0  -0.8 -0.8 0  -0.7333333333333334 -0.8 0  -0.6666666666666667 -0.8 0  -0.6 -0.8 0  -0.5333333333333333 -0.8 0  -0.4666666666666667 -0.8 0  -0.4 -0.8 0  -0.3333333333333334 -0.8 0  -0.2666666666666667 -0.8 0  -0.2 -0.8 0  -0.1333333333333333 -0.8 0  -0.06666666666666665 -0.8 0  0 -0.8 0  0.06666666666666665 -0.8 0  0.1333333333333333 -0.8 0  0.2 -0.8 0  0.2666666666666666 -0.8 0  0.3333333333333333 -0.8 0  0.3999999999999999 -0.8 0  0.4666666666666666 -0.8 0  0.5333333333333334 -0.8 0  0.6000000000000001 -0.8 0  0.6666666666666667 -0.8 0  0.7333333333333334 -0.8 0  0.8 -0.8 0  0.8666666666666667 -0.8 0  0.9333333333333333 -0.8 0  1 -0.8 0  -1 -0.7333333333333334 0  -0.9333333333333333 -0.7333333333333334 0  -0.8666666666666667 -0.7333333333333334 0  -0.8 -0.7333333333333334 0  -0.7333333333333334 -0.7333333333333334 0  -0.6666666666666667 -0.7333333333333334 0  -0.6 -0.7333333333333334 0  -0.5333333333333333 -0.7333333333333334 0  -0.4666666666666667 -0.7333333333333334 0  -0.4 -0.7333333333333334 0  -0.3333333333333334 -0.7333333333333334 0  -0.2666666666666667 -0.7333333333333334 0  -0.2 -0.7333333333333334 0  -0.1333333333333333 -0.7333333333333334 0  -0.06666666666666665 -0.7333333333333334 0  0 -0.7333333333333334 0  0.06666666666666665 -0.7333333333333334 0  0.1333333333333333 -0.7333333333333334 0  0.2 -0.7333333333333334 0  0.2666666666666666 -0.7333333333333334 0  0.3333333333333333 -0.7333333333333334 0  0.3999999999999999 -0.7333333333333334 0  0.4666666666666666 -0.7333333333333334 0  0.5333333333333334 -0.7333333333333334 0  0.6000000000000001 -0.7333333333333334 0  0.6666666666666667 -0.7333333333333334 0  0.7333333333333334 -0.7333333333333334 0  0.8 -0.7333333333333334 0  0.8666666666666667 -0.7333333333333334 0  0.9333333333333333 -0.7333333333333334 0  1 -0.7333333333333334 0  -1 -0.6666666666666667 0  -0.9333333333333333 -0.6666666666666667 0  -0.8666666666666667 -0.6666666666666667 0  -0.8 -0.6666666666666667 0  -0.7333333333333334 -0.6666666666666667 0  -0.6666666666666667 -0.6666666666666667 0  -0.6 -0.6666666666666667 0  -0.5333333333333333 -0.6666666666666667 0  -0.4666666666666667 -0.6666666666666667 0  -0.4 -0.6666666666666667 0  -0.3333333333333334 -0.6666666666666667 0  -0.2666666666666667 -0.6666666666666667 0  -0.2 -0.6666666666666667 0  -0.1333333333333333 -0.6666666666666667 0  -0.06666666666666665 -0.6666666666666667 0  0 -0.6666666666666667 0  0.06666666666666665 -0.6666666666666667 0  0.1333333333333333 -0.6666666666666667 0  0.2 -0.6666666666666667 0  0.2666666666666666 -0.6666666666666667 0  0.3333333333333333 -0.6666666666666667 0  0.3999999999999999 -0.6666666666666667 0  0.4666666666666666 -0.6666666666666667 0  0.5333333333333334 -0.6666666666666667 0  0.6000000000000001 -0.6666666666666667 0  0.6666666666666667 -0.6666666666666667 0  0.7333333333333334 -0.6666666666666667 0  0.8 -0.6666666666666667 0  0.8666666666666667 -0.6666666666666667 0  0.9333333333333333 -0.6666666666666667 0  1 -0.6666666666666667 0  -1 -0.6 0  -0.9333333333333333 -0.6 0  -0.8666666666666667 -0.6 0  -0.8 -0.6 0  -0.7333333333333334 -0.6 0  -0.6666666666666667 -0.6 0  -0.6 -0.6 0  -0.5333333333333333 -0.6 0  -0.4666666666666667 -0.6 0  -0.4 -0.6 0  -0.3333333333333334 -0.6 0  -0.2666666666666667 -0.6 0  -0.2 -0.6 0  -0.1333333333333333 -0.6 0  -0.06666666666666665 -0.6 0  0 -0.6 0  0.06666666666666665 -0.6 0  0.1333333333333333 -0.6 0  0.2 -0.6 0  0.2666666666666666 -0.6 0  0.3333333333333333 -0.6 0  0.3999999999999999 -0.6 0  0.4666666666666666 -0.6 0  0.5333333333333334 -0.6 0  0.6000000000000001 -0.6 0  0.6666666666666667 -0.6 0  0.7333333333333334 -0.6 0  0.8 -0.6 0  0.8666666666666667 -0.6 0  0.9333333333333333 -0.6 0  1 -0.6 0  -1 -0.5333333333333333 0  -0.9333333333333333 -0.5333333333333333 0  -0.8666666666666667 -0.5333333333333333 0  -0.8 -0.5333333333333333 0  -0.7333333333333334 -0.5333333333333333 0  -0.6666666666666667 -0.5333333333333333 0  -0.6 -0.5333333333333333 0  -0.5333333333333333 -0.5333333333333333 0  -0.4666666666666667 -0.5333333333333333 0  -0.4 -0.5333333333333333 0  -0.3333333333333334 -0.5333333333333333 0  -0.2666666666666667 -0.5333333333333333 0  -0.2 -0.5333333333333333 0  -0.1333333333333333 -0.5333333333333333 0  -0.06666666666666665 -0.5333333333333333 0  0 -0.5333333333333333 0  0.06666666666666665 -0.5333333333333333 0  0.1333333333333333 -0.5333333333333333 0  0.2 -0.5333333333333333 0  0.2666666666666666 -0.5333333333333333 0  0.3333333333333333 -0.5333333333333333 0  0.3999999999999999 -0.5333333333333333 0  0.4666666666666666 -0.5333333333333333 0  0.5333333333333334 -0.5333333333333333 0  0.6000000000000001 -0.5333333333333333 0  0.6666666666666667 -0.5333333333333333 0  0.7333333333333334 -0.5333333333333333 0  0.8 -0.5333333333333333 0  0.8666666666666667 -0.5333333333333333 0  0.9333333333333333 -0.5333333333333333 0  1 -0.5333333333333333 0  -1 -0.4666666666666667 0  -0.9333333333333333 -0.4666666666666667 0  -0.8666666666666667 -0.4666666666666667 0  -0.8 -0.4666666666666667 0  -0.7333333333333334 -0.4666666666666667 0  -0.6666666666666667 -0.4666666666666667 0  -0.6 -0.4666666666666667 0  -0.5333333333333333 -0.4666666666666667 0  -0.4666666666666667 -0.4666666666666667 0  -0.4 -0.4666666666666667 0  -0.3333333333333334 -0.4666666666666667 0  -0.2666666666666667 -0.4666666666666667 0  -0.2 -0.4666666666666667 0  -0.1333333333333333 -0.4666666666666667 0  -0.06666666666666665 -0.4666666666666667 0  0 -0.4666666666666667 0  0.06666666666666665 -0.4666666666666667 0  0.1333333333333333 -0.4666666666666667 0  0.2 -0.4666666666666667 0  0.2666666666666666 -0.4666666666666667 0  0.3333333333333333 -0.4666666666666667 0  0.3999999999999999 -0.4666666666666667 0  0.4666666666666666 -0.4666666666666667 0  0.5333333333333334 -0.4666666666666667 0  0.6000000000000001 -0.4666666666666667 0  0.6666666666666667 -0.4666666666666667 0  0.7333333333333334 -0.4666666666666667 0  0.8 -0.4666666666666667 0  0.8666666666666667 -0.4666666666666667 0  0.9333333333333333 -0.4666666666666667 0  1 -0.4666666666666667 0  -1 -0.4 0  -0.9333333333333333 -0.4 0  -0.8666666666666667 -0.4 0  -0.8 -0.4 0  -0.7333333333333334 -0.4 0  -0.6666666666666667 -0.4 0  -0.6 -0.4 0  -0.5333333333333333 -0.4 0  -0.4666666666666667 -0.4 0  -0.4 -0.4 0  -0.3333333333333334 -0.4 0  -0.2666666666666667 -0.4 0  -0.2 -0.4 0  -0.1333333333333333 -0.4 0  -0.06666666666666665 -0.4 0  0 -0.4 0  0.06666666666666665 -0.4 0  0.1333333333333333 -0.4 0  0.2 -0.4 0  0.2666666666666666 -0.4 0  0.3333333333333333 -0.4 0  0.3999999999999999 -0.4 0  0.4666666666666666 -0.4 0  0.5333333333333334 -0.4 0  0.6000000000000001 -0.4 0  0.6666666666666667 -0.4 0  0.7333333333333334 -0.4 0 
[...]
<PointData  Scalars="f_24"> 
<DataArray  type="Float64"  Name="f_24"  format="ascii">0.0000000000000000e+00  0.0000000000000000e+00  0.0000000000000000e+00  0.0000000000000000e+00  0.0000000000000000e+00  0.0000000000000000e+00  0.0000000000000000e+00  0.0000000000000000e+00  0.0000000000000000e+00  0.0000000000000000e+00  0.0000000000000000e+00  0.0000000000000000e+00  0.0000000000000000e+00  0.0000000000000000e+00  0.0000000000000000e+00  0.0000000000000000e+00  0.0000000000000000e+00  0.0000000000000000e+00  0.0000000000000000e+00  0.0000000000000000e+00  0.0000000000000000e+00  0.0000000000000000e+00  0.0000000000000000e+00  0.0000000000000000e+00  0.0000000000000000e+00  0.0000000000000000e+00  0.0000000000000000e+00  0.0000000000000000e+00  0.0000000000000000e+00  0.0000000000000000e+00  1.0996628460655561e+01  0.0000000000000000e+00  5.3614508135212305e-02  1.0418399570247178e-01  1.5176104412783092e-01  1.9680696110760229e-01  2.3979889797947285e-01  2.8123078505759119e-01  3.2162897304658306e-01  3.6156572282449018e-01  4.0167401736589170e-01  4.4266326218831514e-01  4.8533829515682642e-01  5.3062486066769543e-01  5.7960509448351871e-01  6.3356735348132698e-01  6.9407606932990895e-01  7.6306949947449731e-01  8.4299690680738582e-01  9.3701235190948018e-01  1.0492511345724134e+00  1.1852288770344479e+00  1.3524258630563064e+00  1.5611573842499580e+00  1.8258982917220106e+00  2.1673574074910182e+00  2.6158556236789186e+00  3.2171186900587347e+00  4.0430443812596648e+00  5.2132435310383229e+00  6.9475920236560329e+00  9.6021066349147226e+00  0.0000000000000000e+00  1.0351706386041128e-01  1.9488015704736547e-01  2.7049476034605091e-01  3.2941288416450953e-01  3.7220835089860055e-01  4.0047404657717528e-01  4.1635079056820029e-01  4.2215986436893754e-01  4.2015022305189453e-01  4.1234811780346076e-01  4.0049040669597413e-01  3.8601767220606598e-01  3.7010649172340293e-01  3.5372622304334489e-01  3.3771252373722344e-01  3.2285732504434045e-01  3.1002316156065624e-01  3.0030028572154499e-01  2.9524091710773159e-01  2.9723153456454648e-01  3.1011067442096191e-01  3.4022326706186667e-01  3.9825674516098974e-01  5.0249860732153873e-01  6.8475453314858115e-01  1.0015257155957542e+00  1.5562838725890755e+00  2.5498325563161766e+00  4.4075831812806481e+00  8.3446218063119808e+00  0.0000000000000000e+00  1.4756005707482567e-01  2.6517566148328758e-01  3.4272597636311364e-01  3.8000774607956994e-01  3.8304081908862997e-01  3.6071689618984493e-01  3.2218580199124364e-01  2.7531752797685050e-01  2.2607741408327092e-01  1.7851217929200949e-01  1.3505290302614367e-01  9.6920482986556145e-02  6.4511908877420393e-02  3.7714210298346401e-02  1.6135801313132223e-02  -7.3356289006283322e-04  -1.3414356871432493e-02  -2.2356775801546592e-02  -2.7858851817173087e-02  -2.9938100623193867e-02  -2.8071565696365808e-02  -2.0626391925274146e-02  -3.5994799377331338e-03  3.2154864493832473e-02  1.0697746595285181e-01  2.6559361934726067e-01  6.0679397344499630e-01  1.3524825197400208e+00  3.0464097471015337e+00  7.2148879330361142e+00  0.0000000000000000e+00  1.8459357357333964e-01  3.1357032802377621e-01  3.7123608210459103e-01  3.6592953917286136e-01  3.1829168619779197e-01  2.5054843455344539e-01  1.8019359441064331e-01  1.1802967280632534e-01  6.8922571642838673e-02  3.3622662684069257e-02  1.0582515214712609e-02  -2.6862482136003215e-03  -8.7807823226877368e-03  -9.9902419009230744e-03  -8.1478891315429659e-03  -4.6312173629384171e-03  -4.2956600831845561e-04  3.7668128880482812e-03  7.4790922144455114e-03  1.0365566023461122e-02  1.2178494958867359e-02  1.2813511025090589e-02  1.2663277601735520e-02  1.3918939411578736e-02  2.4614701988403605e-02  7.0164738999245066e-02  2.2414908295406241e-01  6.9333066898434237e-01  2.0538933243573458e+00  6.2039447993043657e+00  0.0000000000000000e+00  2.1423822062748479e-01  3.4223830051259746e-01  3.6734364908456213e-01  3.1622814276535993e-01  2.3033705957450964e-01  1.4388778576059696e-01  7.5651688631386521e-02  3.0723957297845921e-02  6.0685753585316563e-03  -4.3635364273086367e-03  -6.4812679375445062e-03  -4.7307366601046646e-03  -1.9111457642393681e-03  5.0466958177749252e-04  1.9358165093217694e-03  2.3208879860994250e-03  1.8553469690586976e-03  8.2812059186979808e-04  -4.7147748969630601e-04  -1.8067487209036202e-03  -3.0354784617453133e-03  -4.1687897910776244e-03  -5.4502250679598014e-03  -7.2513700427163305e-03  -8.6754995845957604e-03  -6.6500981486071952e-04  6.0448824205901849e-02  3.3775509663405584e-01  1.4020362550449545e+00  5.3031580153624436e+00  0.0000000000000000e+00  2.3671274846815021e-01  3.5521815382797733e-01  3.4402783295255024e-01  2.5550133070770542e-01  1.5145597769816849e-01  7.0036763221975371e-02  2.1748688155117074e-02  3.9588037263079106e-04  -5.0831307274856411e-03  -3.8450800304744878e-03  -1.2331144895759180e-03  5.6368706919166498e-04  1.1847904648930167e-03  1.0230433901849418e-03  6.0652671559505557e-04  3.3839114392363999e-04  4.4012631236724600e-04  9.8163436231533648e-04  1.9324411338523960e-03  3.2046713323905605e-03  4.6775840812301886e-03  6.1924509431398418e-03  7.4748115850160179e-03  7.8695986472455196e-03  6.0359172746885792e-03  2.0207604729389761e-03  1.3675617833237017e-02  1.5572019677962626e-01  9.3486536324708680e-01  4.5042190174845187e+00  0.0000000000000000e+00  2.5263949705729966e-01  3.5697371473012846e-01  3.1205123452052280e-01  1.9863422457241336e-01  9.3175344405284605e-02  2.8425014082205675e-02  1.2878305524722327e-03  -4.4492670105090093e-03  -2.6224398215671774e-03  -2.6389893944116786e-04  7.0881728320616082e-04  6.3861653574513386e-04  2.7286231056873275e-04  6.3521984087737694e-05  1.1620600273581904e-04  3.4652190492044644e-04  6.2893064510867425e-04  8.7996650731723969e-04  1.0839208164099856e-03  1.2821960546698539e-03  1.5430633729310325e-03  1.9279335059226618e-03  2.4581001313140937e-03  3.0106732764988401e-03  2.7318618644670829e-03  -8.9994866886688757e-04  -5.3466648834466033e-03  5.5600931480454328e-02  6.1188530310548739e-01  3.7991450679732250e+00  0.0000000000000000e+00  2.6285780103096307e-01  3.5152088068059323e-01  2.7876743698831952e-01  1.5207504959346324e-01  5.4945420915182723e-02  8.5032100575097580e-03  -3.6439819764773783e-03  -2.6647585471868550e-03  -2.4677847172524476e-04  5.6699995018783303e-04  3.5768196649098191e-04  4.8783330819298317e-05  -2.3101517005910981e-05  7.4128005038883948e-05  1.9636728351981155e-04  2.8205319457080244e-04  3.6640780729597201e-04  5.4211035361742522e-04  9.2132991133619013e-04  1.6111450834644684e-03  2.6904443380551778e-03  4.1695763120913132e-03  5.9526340015462536e-03  7.8294608726455408e-03  9.3697629601838337e-03  8.4415520819159425e-03  4.4184653787847573e-04  1.5267306121154657e-02  3.8973157098072825e-01  3.1802792551596668e+00  0.0000000000000000e+00  2.6827478560284862e-01  3.4204795001545091e-01  2.4844524662453288e-01  1.1704087340676357e-01  3.1848303274550842e-02  3.9633416449922460e-04  -3.3660794891705696e-03  -8.1608918747300108e-04  4.3066682387587455e-04  3.0142048190554926e-04  4.0301843211416156e-06  -4.5194268339859801e-05  2.9532808624179078e-05  7.7976267282906366e-05  7.9086128524123576e-05  8.1968122060148567e-05  1.3445070059180962e-04  2.6597878774290893e-04  5.1061737363324955e-04  9.3868765466429056e-04  1.6664294336580059e-03  2.8158946905350204e-03  4.3919251469667284e-03  6.1981510969395517e-03  7.8604427538707562e-03  8.4317934834479673e-03  2.2546599431516540e-03  -5.0092839420329133e-03  2.3320502758686246e-01  2.6402904934033997e+00  0.0000000000000000e+00  2.6976162817290489e-01  3.3085996837009185e-01  2.2312368128580551e-01  9.2288429319539428e-02  1.8754301397208122e-02  -2.2322894278897229e-03  -2.1407558010126948e-03  4.6779433512945147e-05  3.6154867626642242e-04  4.3853411001480721e-05  -5.6785335851726806e-05  1.4816990742540383e-06  3.4268698792905252e-05  2.0891035537713899e-05  8.9434962196538467e-06  2.0559347617895000e-05  5.3079179801871259e-05  1.1744012024282472e-04  2.7211380608040657e-04  6.4689658863303922e-04  1.4519764253814024e-03  2.9335238305449036e-03  5.2396884629336959e-03  8.1183898191414579e-03  1.0961135718083026e-02  1.2872588125494838e-02  1.0090128582840883e-02  -6.0747574171322637e-03  1.3321141740710443e-01  2.1721735230924577e+00  0.0000000000000000e+00  2.6809698811000798e-01  3.1948428536217849e-01  2.0345984973976466e-01  7.5839175658061725e-02  1.1788744468600098e-02  -2.6955695186474068e-03  -1.2033498835605817e-03  2.8684857156498791e-04  1.8377627533440507e-04  -4.3175850171799225e-05  -2.6407460049667201e-05  1.8177692892084233e-05  1.0877938640916950e-05  -3.1266144924289192e-06  -1.7009258264949772e-06  3.4033139873598926e-06  6.0132702212664808e-06  2.1353627445480467e-05  9.3257022902970283e-05  3.2476698770518569e-04  9.2728119479067650e-04  2.2343463978881572e-03  4.5449275738160969e-03  7.8165178327873515e-03  1.1109020547253675e-02  1.3516305765285914e-02  1.2323908998570233e-02  -4.2521316685444647e-03  6.3090312497846954e-02  1.7692489106433249e+00  0.0000000000000000e+00  2.6393416597981201e-01  3.0883646679681809e-01  1.8936264942338457e-01  6.5835305876393302e-02  8.4633670542095356e-03  -2.4704905154181787e-03  -6.9048554966508310e-04  2.8774246910516363e-04  7.4413434843689289e-05  -4.8023222299817569e-05  -3.1930291847212796e-06  1.2780698656898446e-05  -8.6408343509034365e-07  -3.5659700850506657e-06  4.5341468682779500e-08  -1.0022918816255241e-06  -4.2625581558393737e-06  -3.1207018492347957e-06  2.2856752704610740e-05  1.5936568385579468e-04  6.4673591695052187e-04  1.9288356003917249e-03  4.5432421705220204e-03  8.5888487662307868e-03  1.3240437415784076e-02  1.6414147214829377e-02  1.7200850101072425e-02  2.2895907600554836e-03  2.3864722901506950e-02  1.4251630485009605e+00  0.0000000000000000e+00  2.5780867997079771e-01  2.9937469362583674e-01  1.8040671701826377e-01  6.0854003993824124e-02  7.3719057246044136e-03  -2.1077355456561660e-03  -4.7868202344160946e-04  2.3386876267327068e-04  3.1550140164413504e-05  -3.5589215777131542e-05  3.4756426409267903e-06  6.4378089637471949e-06  -2.5469865101053115e-06  -1.0478362046409877e-06  6.5866962558199006e-07  -6.9554250335354072e-07  -2.3959539779972172e-06  -6.8908224165535997e-06  -9.5636809831246381e-06  5.2222525435957780e-05  4.0644412949184628e-04  1.5747284300849517e-03  4.2488231807527839e-03  8.8324584262253533e-03  1.4297961240090190e-02  1.8382461060341679e-02  1.8937403669535183e-02  7.8818351160569525e-03  -2.3358745317387398e-03  1.1338881551387816e+00  0.0000000000000000e+00  2.5012359981196092e-01  2.9123765702779120e-01  1.7604974031835705e-01  5.9963403613862216e-02  7.8476604742322709e-03  -1.7358540082124542e-03  -4.5080731568495486e-04  1.8079370135727144e-04  2.5645695828952836e-05  -2.5839771377593058e-05  2.3836071378552948e-06  3.7294146731084372e-06  -1.5436418154332517e-06  -3.0578860510667073e-07  3.8947705162351680e-07  1.0070221312372375e-07  1.4874732682980231e-07  -3.7980255118519726e-06  -1.6065512901072606e-05  2.8446440517290600e-06  2.7644419339938341e-04  1.3905419227836502e-03  4.2914338574143790e-03  9.5171542681028766e-03  1.6322102258331823e-02  2.1325188106210684e-02  2.2519249743513908e-02  1.3629618051509010e-02  -1.2814494433810900e-02  8.8972227505867019e-01  0.0000000000000000e+00  2.4120165949094599e-01  2.8433256309742760e-01  1.7575150295877801e-01  6.2656020576326937e-02  9.7295134648934488e-03  -1.2865798791252422e-03  -5.3656320995156383e-04  1.2641762437517353e-04  3.8190836257980878e-05  -1.8741336116381566e-05  -1.4941051359677990e-06  2.8177109212916392e-06  -2.3797570962696417e-07  -2.2059283488966502e-07  2.5306973832617936e-08  1.1894450485870078e-07  1.1757548779696100e-06  -6.4734912306214440e-07  -1.7032610065727274e-05  -2.3870696778727002e-05  1.9948545331046534e-04  1.3353923599822117e-03  4.4774122313367163e-03  1.0475316034935926e-02  1.8239424121350579e-02  2.4461105594998683e-02  2.4838263740698922e-02  1.8214568470049944e-02  -1.8267653354222237e-02  6.8728927879097257e-01  0.0000000000000000e+00  2.3124060077155900e-01  2.7841011130311405e-01  1.7897227412556421e-01  6.8763357569630937e-02  1.3220970540821938e-02  -5.4599023097759349e-04  -6.8622403729252772e-04  4.4367737988037993e-05  5.7567978022333523e-05  -7.9772146616075811e-06  -6.0089074551938958e-06  1.0878375987722808e-06  8.0970141514464020e-07  1.7393484268017469e-07  -1.9078038213624941e-07  -1.5908818233428431e-07  1.8378075279189798e-06  1.3775086601907135e-06  -1.9230807656613447e-05  -4.1648512844386354e-05  1.8957304557044101e-04  1.4550533566827734e-03  5.0860720460862178e-03  1.1960662873700869e-02  2.1039682560786428e-02  2.8089203527101748e-02  2.8442624449348666e-02  2.1987034400926250e-02  -1.6733383714373273e-02  5.2153886289449880e-01  0.0000000000000000e+00  2.2041976956801695e-01  2.7310034635827113e-01  1.8518791230735104e-01  7.8342841944121083e-02  1.8845754414282025e-02  8.8542401487618893e-04  -8.0535938015683284e-04  -1.0279829251952966e-04  6.3734174868638379e-05  1.2685312063987577e-05  -6.2150471811970382e-06  -2.5550398166646313e-06  -1.3873528987647970e-07  -1.2594544085049804e-07  -6.6932380310152298e-07  -1.2297983864119487e-09  3.4286152604871036e-06  1.3245914410464667e-06  -2.9780087050145137e-05  -5.3946268349028540e-05  2.5568084756537410e-04  1.8603500676458212e-03  6.2043554274238350e-03  1.4280274133190394e-02  2.4431497262651768e-02  3.2351657419344697e-02  3.1716481083498838e-02  2.5058495999053271e-02  -1.3929324969030481e-02  3.8774654995652286e-01  0.0000000000000000e+00  2.0878415233932271e-01  2.6793640603416002e-01  1.9377599658960684e-01  9.1559747555916352e-02  2.7406531399106961e-02  3.7052428962385986e-03  -6.4231093266430960e-04  -3.2840651462709810e-04  1.0648087637102414e-05  3.5137523970173347e-05  6.7001672224890071e-06  -2.2527606593034466e-06  -2.1820987317349544e-06  -1.4910109262999676e-06  -5.8288284451950668e-07  2.4382438989175044e-06  5.7653763508672735e-06  -6.9709092201363168e-06  -5.5026732498894363e-05  -4.7172139082290371e-05  4.9911737075777386e-04  2.7294303235764427e-03  8.2239312386235153e-03  1.7665038697240756e-02  2.9018843675328521e-02  3.7115574904743917e-02  3.5732274299395038e-02  2.7402759155990677e-02  -8.8503943042753021e-03  2.8151368859278242e-01  0.0000000000000000e+00  1.9643314647583435e-01  2.6238569260828287e-01  2.0402986498915110e-01  1.0854409561959134e-01  3.9967364107706307e-02  9.0575196777123081e-03  4.2471897014393392e-04  -5.0075008641194466e-04  -1.5854370150296070e-04  7.8761301206442184e-06  2.3459494385777417e-05  1.1348504405106252e-05  4.7018246520533678e-06  3.4040078573649026e-06  5.0747483927065789e-06  6.9488882320403715e-06  -1.4015918058687704e-06  -3.9666904021828177e-05  -8.9565148255877139e-05  7.2115748006400685e-05  1.1475908935245553e-03  4.4934084909361276e-03  1.1571359155503448e-02  2.2647310616165102e-02  3.4794375192822448e-02  4.2629693116175156e-02  3.9649978930830741e-02  2.9358466202634020e-02  -4.1677742584104267e-03  1.9876745344747918e-01  0.0000000000000000e+00  1.8330007632412748e-01  2.5581904627799495e-01  2.1495560406802114e-01  1.2915632674081656e-01  5.7673086223233493e-02  1.8642465757163228e-02  3.7004104055098686e-03  -3.3685622127508079e-05  -3.5378345322961311e-04  -1.4877871506997677e-04  -2.9899732479673791e-05  4.2796387322194942e-06  9.1637018154366662e-06  7.5839208822886024e-06  2.5642961169146605e-06  -1.2826307434701395e-05  -5.0035505766874356e-05  -9.7603554295572475e-05  -2.4482111226440971e-05  6.0983485020924292e-04  2.7693508429703887e-03  7.8603395912770872e-03  1.7017719509472142e-02  2.9629251150617777e-02  4.2100422498785081e-02  4.8629553914302383e-02  4.3728211271121656e-02  3.0762561088678794e-02  5.2504862095943325e-04  1.3576084519327861e-01  0.0000000000000000e+00  1.6944667225687748e-01  2.4759780852154495e-01  2.2536422610215898e-01  1.5279443121917508e-01  8.1510342798312971e-02  3.4699284953096619e-02  1.1547077909953829e-02  2.7001146099047946e-03  1.8163956597658451e-04  -2.4517370933138709e-04  -1.9810418695670101e-04  -1.1875902532305970e-04  -7.6500213940372270e-05  -6.4644035201881869e-05  -7.4109294748685655e-05  -9.7230805655592061e-05  -1.0215224848109031e-04  3.2878017240075754e-05  6.4279678340829597e-04  2.4281558814369737e-03  6.4930700109009165e-03  1.4035429873487220e-02  2.5438328045075273e-02  3.9131016515495790e-02  5.0815869356284120e-02  5.5036414035960331e-02  4.7410102252489143e-02  3.1779071395779346e-02  4.2088835266610386e-03  8.9072690531310103e-02  0.0000000000000000e+00  1.5472767620253347e-01  2.3696039428305149e-01  2.3358766519294549e-01  1.7796187299908972e-01  1.1162919618363371e-01  5.9496125960301592e-02  2.7442440690304864e-02  1.1067434462374261e-02  3.9030643259334481e-03  1.1707317890358459e-03  2.5519848824760656e-04  -1.0573076176827987e-05  -6.8928201934639530e-05  -6.0796462827546808e-05  -8.0382022998225642e-06  1.3821627862078487e-04  5.2141092200495322e-04  1.4489191931084738e-03  3.4780556158186928e-03  7.4413247565059074e-03  1.4291813681749300e-02  2.4598866477490853e-02  3.7771966970509468e-02  5.1268881052819168e-02  6.0685672571892016e-02  6.1292171916244254e-02  5.0487552346934056e-02  3.2203589882374442e-02  7.0508890110864775e-03  5.5607642191166928e-02  0.0000000000000000e+00  1.3918124412606184e-01  2.2323415213177855e-01  2.3776529324078571e-01  2.0217771912708454e-01  1.4671911307757934e-01  9.4346341930446220e-02  5.5307280233639622e-02  3.0365693981690173e-02  1.6096178411620584e-02  8.5546422007221467e-03  4.7847063452213902e-03  2.9879250820415153e-03  2.2135208143108836e-03  2.0260337091982761e-03  2.2913930543818424e-03  3.0787975891373230e-03  4.6370311799656342e-03  7.3993391108502738e-03  1.1960212115146815e-02  1.8956655315035948e-02  2.8776449900269483e-02  4.1096847573258245e-02  5.4360945919628215e-02  6.5577475734803936e-02  7.0807429026200436e-02  6.6726555853489702e-02  5.2414475840524909e-02  3.1987497225741963e-02  8.8077812908404756e-03  3.2596178930906147e-02  0.0000000000000000e+00  1.2262034128181708e-01  2.0560073791021732e-01  2.3551304508808557e-01  2.2147667446285252e-01  1.8278945474875191e-01  1.3752801201774142e-01  9.7067231517812019e-02  6.5960860118319767e-02  4.4306642211780552e-02  3.0245450049344768e-02  2.1589377150499019e-02  1.6554303105998276e-02  1.3932705916283867e-02  1.3026165778217120e-02  1.3522761457627402e-02  1.5391189000700087e-02  1.8797033276185128e-02  2.4016991260325474e-02  3.1316745824089283e-02  4.0759897202122822e-02  5.1951923931715625e-02  6.3757025788229768e-02  7.4158881344651886e-02  8.0401752924068939e-02  7.9694207642367440e-02  7.0283579791586975e-02  5.2723631908529051e-02  3.0919506286960063e-02  9.6076286541371906e-03  1.7594605537048880e-02  0.0000000000000000e+00  1.0503668842974870e-01  1.8348519761644091e-01  2.2457552523318858e-01  2.3098081067699142e-01  2.1301210701383266e-01  1.8253659780249612e-01  1.4908942058619643e-01  1.1855320707474248e-01  9.3571266848464174e-02  7.4639586837451186e-02  6.1166837281401161e-02  5.2211190653735695e-02  4.6879658347855763e-02  4.4486937271845377e-02  4.4576079061111079e-02  4.6871191722379274e-02  5.1195758400643582e-02  5.7368652913893821e-02  6.5078971547992193e-02  7.3751040478100952e-02  8.2417993751558338e-02  8.9668113660687943e-02  9.3715301324419520e-02  9.2692617091805110e-02  8.5162672106546447e-02  7.0767787932793438e-02  5.0864098038221874e-02  2.8848856863868039e-02  9.5050953741351602e-03  8.4850528245799008e-03  0.0000000000000000e+00  8.6260772458456550e-02  1.5620022503030584e-01  2.0249387169694910e-01  2.2477382535924859e-01  2.2728554100166021e-01  2.1624368936376481e-01  1.9776649793001105e-01  1.7672641810512754e-01  1.5640618859337849e-01  1.3866357372743546e-01  1.2430867794710877e-01  1.1349348935958076e-01  1.0601613684991550e-01  1.0151671149315140e-01  9.9578117821193565e-02  9.9758506791227622e-02  1.015791431445412