<?xml version="1.0"?>
<VTKFile type="UnstructuredGrid"  version="0.1"  >
<UnstructuredGrid>
<Piece  NumberOfPoints="961" NumberOfCells="1800">
<Points>
<DataArray  type="Float64"  NumberOfComponents="3"  format="ascii">-1 -1 0  -0.9333333333333333 -1 0  -0.8666666666666667 -1 0  -0.8 -1 0  -0.7333333333333334 -1 0  -0.6666666666666667 -1 0  -0.6 -1 0  -0.5333333333333333 -1 0  -0.4666666666666667 -1 0  -0.4 -1 0  -0.3333333333333334 -1 0  -0.2666666666666667 -1 0  -0.2 -1 0  -0.1333333333333333 -1 0  -0.06666666666666665 -1 0  0 -1 0  0.06666666666666665 -1 0  0.1333333333333333 -1 0  0.2 -1 0  0.2666666666666666 -1 0  0.3333333333333333 -1 0  0.3999999999999999 -1 0  0.4666666666666666 -1 0  0.5333333333333334 -1 0  0.6000000000000001 -1 0  0.6666666666666667 -1 0  0.7333333333333334 -1 0  0.8 -1 0  0.8666666666666667 -1 0  0.9333333333333333 -1 0  1 -1 0  -1 -0.9333333333333333 0  -0.9333333333333333 -0.9333333333333333 0  -0.8666666666666667 -0.9333333333333333 0  -0.8 -0.9333333333333333 0  -0.7333333333333334 -0.9333333333333333 0  -0.6666666666666667 -0.9333333333333333 0  -0.6 -0.9333333333333333 0  -0.5333333333333333 -0.9333333333333333 0  -0.4666666666666667 -0.9333333333333333 0  -0.4 -0.9333333333333333 0  -0.3333333333333334 -0.9333333333333333 0  -0.2666666666666667 -0.9333333333333333 0  -0.2 -0.9333333333333333 0  -0.1333333333333333 -0.9333333333333333 0  -0.06666666666666665 -0.9333333333333333 0  0 -0.9333333333333333 0  0.06666666666666665 -0.9333333333333333 0  0.1333333333333333 -0.9333333333333333 0  0.2 -0.9333333333333333 0  0.2666666666666666 -0.9333333333333333 0  0.3333333333333333 -0.9333333333333333 0  0.3999999999999999 -0.9333333333333333 0  0.4666666666666666 -0.9333333333333333 0  0.5333333333333334 -0.9333333333333333 0  0.6000000000000001 -0.9333333333333333 0  0.6666666666666667 -0.9333333333333333 0  0.7333333333333334 -0.9333333333333333 0  0.8 -0.9333333333333333 0  0.8666666666666667 -0.9333333333333333 0  0.9333333333333333 -0.9333333333333333 0  1 -0.9333333333333333 0  -1 -0.8666666666666667 0  -0.9333333333333333 -0.8666666666666667 0  -0.8666666666666667 -0.8666666666666667 0  -0.8 -0.8666666666666667 0  -0.7333333333333334 -0.8666666666666667 0  -0.6666666666666667 -0.8666666666666667 0  -0.6 -0.8666666666666667 0  -0.5333333333333333 -0.8666666666666667 0  -0.4666666666666667 -0.8666666666666667 0  -0.4 -0.8666666666666667 0  -0.3333333333333334 -0.8666666666666667 0  -0.2666666666666667 -0.8666666666666667 0  -0.2 -0.8666666666666667 0  -0.1333333333333333 -0.8666666666666667 0  -0.06666666666666665 -0.8666666666666667 0  0 -0.8666666666666667 0  0.06666666666666665 -0.8666666666666667 0  0.1333333333333333 -0.8666666666666667 0  0.2 -0.8666666666666667 0  0.2666666666666666 -0.8666666666666667 0  0.3333333333333333 -0.8666666666666667 0  0.3999999999999999 -0.8666666666666667 0  0.4666666666666666 -0.8666666666666667 0  0.5333333333333334 -0.8666666666666667 0  0.6000000000000001 -0.8666666666666667 0  0.6666666666666667 -0.8666666666666667 0  0.7333333333333334 -0.8666666666666667 0  0.8 -0.8666666666666667 0  0.8666666666666667 -0.8666666666666667 0  0.9333333333333333 -0.8666666666666667 0  1 -0.8666666666666667 0  -1 -0.8 0  -0.9333333333333333 -0.8 0  -0.8666666666666667 -0.8 0  -0.8 -0.8 0  -0.7333333333333334 -0.8 0  -0.6666666666666667 -0.8 0  -0.6 -0.8 0  -0.5333333333333333 -0.8 0  -0.4666666666666667 -0.8 0  -0.4 -0.8 0  -0.3333333333333334 -0.8 0  -0.2666666666666667 -0.8 0  -0.2 -0.8 0  -0.1333333333333333 -0.8 0  -0.06666666666666665 -0.8 0  0 -0.8 0  0.06666666666666665 -0.8 0  0.1333333333333333 -0.8 0  0.2 -0.8 0  0.2666666666666666 -0.8 0  0.3333333333333333 -0.8 0  0.3999999999999999 -0.8 0  0.4666666666666666 -0.8 0  0.5333333333333334 -0.8 0  0.6000000000000001 -0.8 0  0.6666666666666667 -0.8 0  0.7333333333333334 -0.8 0  0.8 -0.8 0  0.8666666666666667 -0.8 0  0.9333333333333333 -0.8 0  1 -0.8 0  -1 -0.7333333333333334 0  -0.9333333333333333 -0.7333333333333334 0  -0.8666666666666667 -0.7333333333333334 0  -0.8 -0.7333333333333334 0  -0.7333333333333334 -0.7333333333333334 0  -0.6666666666666667 -0.7333333333333334 0  -0.6 -0.7333333333333334 0  -0.5333333333333333 -0.7333333333333334 0  -0.4666666666666667 -0.7333333333333334 0  -0.4 -0.7333333333333334 0  -0.3333333333333334 -0.7333333333333334 0  -0.2666666666666667 -0.7333333333333334 0  -0.2 -0.7333333333333334 0  -0.1333333333333333 -0.7333333333333334 0  -0.06666666666666665 -0.7333333333333334 0  0 -0.7333333333333334 0  0.06666666666666665 -0.7333333333333334 0  0.1333333333333333 -0.7333333333333334 0  0.2 -0.7333333333333334 0  0.2666666666666666 -0.7333333333333334 0  0.3333333333333333 -0.7333333333333334 0  0.3999999999999999 -0.7333333333333334 0  0.4666666666666666 -0.7333333333333334 0  0.5333333333333334 -0.7333333333333334 0  0.6000000000000001 -0.7333333333333334 0  0.6666666666666667 -0.7333333333333334 0  0.7333333333333334 -0.7333333333333334 0  0.8 -0.7333333333333334 0  0.8666666666666667 -0.7333333333333334 0  0.9333333333333333 -0.7333333333333334 0  1 -0.7333333333333334 0  -1 -0.6666666666666667 0  -0.9333333333333333 -0.6666666666666667 0  -0.8666666666666667 -0.6666666666666667 0  -0.8 -0.6666666666666667 0  -0.7333333333333334 -0.6666666666666667 0  -0.6666666666666667 -0.6666666666666667 0  -0.6 -0.6666666666666667 0  -0.5333333333333333 -0.6666666666666667 0  -0.4666666666666667 -0.6666666666666667 0  -0.4 -0.6666666666666667 0  -0.3333333333333334 -0.6666666666666667 0  -0.2666666666666667 -0.6666666666666667 0  -0.2 -0.6666666666666667 0  -0.1333333333333333 -0.6666666666666667 0  -0.06666666666666665 -0.6666666666666667 0  0 -0.6666666666666667 0  0.06666666666666665 -0.6666666666666667 0  0.1333333333333333 -0.6666666666666667 0  0.2 -0.6666666666666667 0  0.2666666666666666 -0.6666666666666667 0  0.3333333333333333 -0.6666666666666667 0  0.3999999999999999 -0.6666666666666667 0  0.4666666666666666 -0.6666666666666667 0  0.5333333333333334 -0.6666666666666667 0  0.6000000000000001 -0.6666666666666667 0  0.6666666666666667 -0.6666666666666667 0  0.7333333333333334 -0.6666666666666667 0  0.8 -0.6666666666666667 0  0.8666666666666667 -0.6666666666666667 0  0.9333333333333333 -0.6666666666666667 0  1 -0.6666666666666667 0  -1 -0.6 0  -0.9333333333333333 -0.6 0  -0.8666666666666667 -0.6 0  -0.8 -0.6 0  -0.7333333333333334 -0.6 0  -0.6666666666666667 -0.6 0  -0.6 -0.6 0  -0.5333333333333333 -0.6 0  -0.4666666666666667 -0.6 0  -0.4 -0.6 0  -0.3333333333333334 -0.6 0  -0.2666666666666667 -0.6 0  -0.2 -0.6 0  -0.1333333333333333 -0.6 0  -0.06666666666666665 -0.6 0  0 -0.6 0  0.06666666666666665 -0.6 0  0.1333333333333333 -0.6 0  0.2 -0.6 0  0.2666666666666666 -0.6 0  0.3333333333333333 -0.6 0  0.3999999999999999 -0.6 0  0.4666666666666666 -0.6 0  0.5333333333333334 -0.6 0  0.6000000000000001 -0.6 0  0.6666666666666667 -0.6 0  0.7333333333333334 -0.6 0  0.8 -0.6 0  0.8666666666666667 -0.6 0  0.9333333333333333 -0.6 0  1 -0.6 0  -1 -0.5333333333333333 0  -0.9333333333333333 -0.5333333333333333 0  -0.8666666666666667 -0.5333333333333333 0  -0.8 -0.5333333333333333 0  -0.7333333333333334 -0.5333333333333333 0  -0.6666666666666667 -0.5333333333333333 0  -0.6 -0.5333333333333333 0  -0.5333333333333333 -0.5333333333333333 0  -0.4666666666666667 -0.5333333333333333 0  -0.4 -0.5333333333333333 0  -0.3333333333333334 -0.5333333333333333 0  -0.2666666666666667 -0.5333333333333333 0  -0.2 -0.5333333333333333 0  -0.1333333333333333 -0.5333333333333333 0  -0.06666666666666665 -0.5333333333333333 0  0 -0.5333333333333333 0  0.06666666666666665 -0.5333333333333333 0  0.1333333333333333 -0.5333333333333333 0  0.2 -0.5333333333333333 0  0.2666666666666666 -0.5333333333333333 0  0.3333333333333333 -0.5333333333333333 0  0.3999999999999999 -0.5333333333333333 0  0.4666666666666666 -0.5333333333333333 0  0.5333333333333334 -0.5333333333333333 0  0.6000000000000001 -0.5333333333333333 0  0.6666666666666667 -0.5333333333333333 0  0.7333333333333334 -0.5333333333333333 0  0.8 -0.5333333333333333 0  0.8666666666666667 -0.5333333333333333 0  0.9333333333333333 -0.5333333333333333 0  1 -0.5333333333333333 0  -1 -0.4666666666666667 0  -0.9333333333333333 -0.4666666666666667 0  -0.8666666666666667 -0.4666666666666667 0  -0.8 -0.4666666666666667 0  -0.7333333333333334 -0.4666666666666667 0  -0.6666666666666667 -0.4666666666666667 0  -0.6 -0.4666666666666667 0  -0.5333333333333333 -0.4666666666666667 0  -0.4666666666666667 -0.4666666666666667 0  -0.4 -0.4666666666666667 0  -0.3333333333333334 -0.4666666666666667 0  -0.2666666666666667 -0.4666666666666667 0  -0.2 -0.4666666666666667 0  -0.1333333333333333 -0.4666666666666667 0  -0.06666666666666665 -0.4666666666666667 0  0 -0.4666666666666667 0  0.06666666666666665 -0.4666666666666667 0  0.1333333333333333 -0.4666666666666667 0  0.2 -0.4666666666666667 0  0.2666666666666666 -0.4666666666666667 0  0.3333333333333333 -0.4666666666666667 0  0.3999999999999999 -0.4666666666666667 0  0.4666666666666666 -0.4666666666666667 0  0.5333333333333334 -0.4666666666666667 0  0.6000000000000001 -0.4666666666666667 0  0.6666666666666667 -0.4666666666666667 0  0.7333333333333334 -0.4666666666666667 0  0.8 -0.4666666666666667 0  0.8666666666666667 -0.4666666666666667 0  0.9333333333333333 -0.4666666666666667 0  1 -0.4666666666666667 0  -1 -0.4 0  -0.9333333333333333 -0.4 0  -0.8666666666666667 -0.4 0  -0.8 -0.4 0  -0.7333333333333334 -0.4 0  -0.6666666666666667 -0.4 0  -0.6 -0.4 0  -0.5333333333333333 -0.4 0  -0.4666666666666667 -0.4 0  -0.4 -0.4 0  -0.3333333333333334 -0.4 0  -0.2666666666666667 -0.4 0  -0.2 -0.4 0  -0.1333333333333333 -0.4 0  -0.06666666666666665 -0.4 0  0 -0.4 0  0.06666666666666665 -0.4 0  0.1333333333333333 -0.4 0  0.2 -0.4 0  0.2666666666666666 -0.4 0  0.3333333333333333 -0.4 0  0.3999999999999999 -0.4 0  0.4666666666666666 -0.4 0  0.5333333333333334 -0.4 0  0.6000000000000001 -0.4 0  0.6666666666666667 -0.4 0  0.7333333333333334 -0.4 0 
[...]
<PointData  Scalars="f_24"> 
<DataArray  type="Float64"  Name="f_24"  format="ascii">0.0000000000000000e+00  0.0000000000000000e+00  0.0000000000000000e+00  0.0000000000000000e+00  0.0000000000000000e+00  0.0000000000000000e+00  0.0000000000000000e+00  0.0000000000000000e+00  0.0000000000000000e+00  0.0000000000000000e+00  0.0000000000000000e+00  0.0000000000000000e+00  0.0000000000000000e+00  0.0000000000000000e+00  0.0000000000000000e+00  0.0000000000000000e+00  0.0000000000000000e+00  0.0000000000000000e+00  0.0000000000000000e+00  0.0000000000000000e+00  0.0000000000000000e+00  0.0000000000000000e+00  0.0000000000000000e+00  0.0000000000000000e+00  0.0000000000000000e+00  0.0000000000000000e+00  0.0000000000000000e+00  0.0000000000000000e+00  0.0000000000000000e+00  0.0000000000000000e+00  1.1218775091337164e+01  0.0000000000000000e+00  5.4691961848685133e-02  1.0628705707824584e-01  1.5482585554590073e-01  2.0078152616072725e-01  2.4464128529483173e-01  2.8690902176919275e-01  3.2812169744083680e-01  3.6886309698535508e-01  4.0977895832409217e-01  4.5159300286521553e-01  4.9512633058177380e-01  5.4132341513699123e-01  5.9128830740341831e-01  6.4633547573075212e-01  7.0806107064279389e-01  7.7844265155076953e-01  8.5997913553791938e-01  9.5588850237511946e-01  1.0703898172135897e+00  1.2091103727131634e+00  1.3796818298374161e+00  1.5926281444774288e+00  1.8627168755329377e+00  2.2110755005976994e+00  2.6686377534563785e+00  3.2820534246982378e+00  4.1246730209339768e+00  5.3185239200846919e+00  7.0879239076710299e+00  9.7960820560198041e+00  0.0000000000000000e+00  1.0559539635081705e-01  1.9881371885052085e-01  2.7595713847289366e-01  3.3606510637584808e-01  3.7972368889958369e-01  4.0855782669870822e-01  4.2475143653386027e-01  4.3067242689250723e-01  4.2861492157668923e-01  4.2064584777839947e-01  4.0853692435445887e-01  3.9375766709057630e-01  3.7750834088919877e-01  3.6077792441391332e-01  3.4441915214640684e-01  3.2924034221282444e-01  3.1612206854267449e-01  3.0617747302420378e-01  3.0099125419218992e-01  3.0299946610455591e-01  3.1611975767858258e-01  3.4682694554722043e-01  4.0602613497659706e-01  5.1237600776901870e-01  6.9832641927313011e-01  1.0215214756414730e+00  1.5875244854124542e+00  2.6011965224275944e+00  4.4965431949783721e+00  8.5131943488159703e+00  0.0000000000000000e+00  1.5051947345065439e-01  2.7052725462650878e-01  3.4964646740763256e-01  3.8768098833262610e-01  3.9077308955941742e-01  3.6799391751994087e-01  3.2867774581785475e-01  2.8085293368652414e-01  2.3060470617203038e-01  1.8206085684236820e-01  1.3770090034637800e-01  9.8769751915243523e-02  6.5671842533332622e-02  3.8291484697691364e-02  1.6228993207971425e-02  -1.0359801910993424e-03  -1.4033643541037583e-02  -2.3221722250700128e-02  -2.8901725996986045e-02  -3.1087870789013473e-02  -2.9241872730141949e-02  -2.1692217238627676e-02  -4.3487847273555235e-03  3.2124873276095124e-02  1.0848563809791716e-01  2.7036605875719461e-01  6.1855466207850940e-01  1.3794390334844231e+00  3.1077535235349756e+00  7.3606383374263133e+00  0.0000000000000000e+00  1.8829096574962395e-01  3.1989692411405840e-01  3.7873149407141016e-01  3.7331747662921705e-01  3.2471423687613421e-01  2.5559656591750252e-01  1.8381110907276149e-01  1.2037777254417903e-01  7.0259933102146718e-02  3.4222154226315263e-02  1.0684701622050484e-02  -2.8922753346559307e-03  -9.1597719535425563e-03  -1.0454709916919599e-02  -8.6489465862663213e-03  -5.1491543554335883e-03  -9.6537571077278989e-04  3.1987439048344292e-03  6.8573401553213070e-03  9.6674116857318089e-03  1.1385504802022075e-02  1.1918276784770896e-02  1.1682483246024231e-02  1.2930650490695181e-02  2.3874228346765048e-02  7.0450293957916688e-02  2.2772757685465769e-01  7.0664208786764204e-01  2.0950106519945635e+00  6.3292727977023366e+00  0.0000000000000000e+00  2.1852263293713226e-01  3.4914052858433103e-01  3.7475949509728768e-01  3.2261135065778845e-01  2.3498156896252537e-01  1.4677886774878451e-01  7.7153363394325769e-02  3.1302511752735386e-02  6.1283129063122253e-03  -4.5413506524122340e-03  -6.7357815497846949e-03  -4.9924182007269544e-03  -2.1691218638785746e-03  2.2863772750107507e-04  1.6045182839702033e-03  1.8914520723907640e-03  1.2841838240615635e-03  7.3560729691675349e-05  -1.4467085738519717e-03  -3.0316431961895643e-03  -4.5247698102593922e-03  -5.9156849104509751e-03  -7.4202758957950480e-03  -9.3776420684226081e-03  -1.0833793493971799e-02  -2.5213706199599508e-03  6.0115534207877103e-02  3.4344418559318957e-01  1.4297521503759425e+00  5.4102889136463963e+00  0.0000000000000000e+00  2.4143740223140495e-01  3.6237790368111583e-01  3.5097183597719950e-01  2.6065731326350305e-01  1.5450640810056551e-01  7.1435040114038159e-02  2.2160508224843788e-02  3.6156561453478677e-04  -5.2468329373473194e-03  -4.0067782945820730e-03  -1.3700436478973476e-03  4.2864021211233918e-04  1.0190571185641119e-03  7.9821375675475509e-04  2.9934232524706032e-04  -7.3862223453578535e-05  -1.0519348783759722e-04  2.6537233273428874e-04  9.9591413712421723e-04  1.9905299483622763e-03  3.1309607224538263e-03  4.2794884173594522e-03  5.2060781902832460e-03  5.3173379090003595e-03  3.3311371989335004e-03  -6.3578212147610846e-04  1.1649560576949124e-02  1.5718716541004515e-01  9.5285788169727259e-01  4.5952102774117032e+00  0.0000000000000000e+00  2.5766986842792500e-01  3.6416264870834669e-01  3.1834847058588933e-01  2.0264118643263729e-01  9.5048556718663552e-02  2.8983268144690044e-02  1.2882923892633337e-03  -4.5766163909231623e-03  -2.7266901209763478e-03  -3.3609475187707660e-04  6.3858404277866395e-04  5.4603902061032791e-04  1.4656404486649359e-04  -1.0244027524347016e-04  -9.9066647374311862e-05  6.1632505276334887e-05  2.3836396412067016e-04  3.2761994660613367e-04  2.9044371556851203e-04  1.4556024257403322e-04  -5.1722636660664574e-05  -2.2747205618781747e-04  -3.0351715527218855e-04  -2.9202855802457675e-04  -9.0753082954940598e-04  -4.5734404271563960e-03  -8.6330996695985502e-03  5.4400987679117004e-02  6.2301856055662219e-01  3.8758928893023241e+00  0.0000000000000000e+00  2.6807599723301945e-01  3.5859121122396276e-01  2.8439142937081890e-01  1.5514138350099557e-01  5.6047090669854575e-02  8.6607632897753167e-03  -3.7391560127407572e-03  -2.7483243666048237e-03  -2.8967955219323215e-04  5.3258551171549509e-04  3.1117503432267189e-04  -1.2639409360139333e-05  -9.7077157970585308e-05  -1.4181721879400147e-05  8.4481162528957909e-05  1.2837291603546964e-04  1.4032535947584342e-04  1.9340031189906968e-04  3.6942114078548807e-04  7.3441855938549195e-04  1.3242772783387507e-03  2.1274221333494026e-03  3.0850156132627418e-03  4.1212924522867692e-03  5.0391486660228829e-03  3.9381610147095208e-03  -3.7135504031531202e-03  1.2516282040860367e-02  3.9599905642420213e-01  3.2445251577731846e+00  0.0000000000000000e+00  2.7358070051475797e-01  3.4891563597945685e-01  2.5345545275302450e-01  1.1939952694391186e-01  3.2484516362396534e-02  3.9252555901908733e-04  -3.4508594780201401e-03  -8.5405413266053819e-04  4.1429422349273333e-04  2.8001544660194699e-04  -2.4851292980994500e-05  -7.6343487835680486e-05  -2.2001129534009348e-06  4.2734792633830893e-05  3.4437836578676588e-05  1.8114431316144109e-05  3.2774145115263591e-05  8.9113816468755044e-05  1.8629972813580142e-04  3.3808392455450314e-04  5.8516381227377719e-04  9.7922737500143490e-04  1.5159016929606347e-03  2.1289778033844776e-03  2.7607369063305954e-03  2.8859430130782288e-03  -2.9408743456475922e-03  -8.9894316657025165e-03  2.3589499438826855e-01  2.6936278994300524e+00  0.0000000000000000e+00  2.7507245289520665e-01  3.3748648425633526e-01  2.2762044887445909e-01  9.4147060680987563e-02  1.9127337194028524e-02  -2.2866730322928987e-03  -2.1961956379143084e-03  3.3352337120772699e-05  3.5377376539013234e-04  3.0113758515763110e-05  -7.1256607043860407e-05  -1.0334395728349186e-05  2.4249512518912348e-05  1.0757377845472355e-05  -3.1314660938603218e-06  3.0671489503757228e-06  2.1294144684136162e-05  4.9197516745567021e-05  1.1531198443500704e-04  2.8938514196546317e-04  6.8144908148365282e-04  1.4121225953998874e-03  2.5468701198551177e-03  3.9178438654780051e-03  5.2873615502804332e-03  6.3754251381140719e-03  3.9024004934242761e-03  -1.0969573911058612e-02  1.3343514749739654e-01  2.2160543390295646e+00  0.0000000000000000e+00  2.7334462547162841e-01  3.2586086036432449e-01  2.0755598501067668e-01  7.7365462247516864e-02  1.2022314772565634e-02  -2.7569678841404630e-03  -1.2360668867262947e-03  2.8358061971012178e-04  1.7906732829068439e-04  -5.1096842946761661e-05  -3.2219370280570648e-05  1.4891889218914908e-05  8.7462631369880416e-06  -4.6990274744369993e-06  -2.8662188641394216e-06  1.8593513145667207e-06  1.3721087156593973e-06  4.2239163071367843e-06  3.3176240393505119e-05  1.3641458241686540e-04  4.1184885566229360e-04  1.0164968011324219e-03  2.0761399838809978e-03  3.5520179116655527e-03  4.8908934530530780e-03  6.0018492160300290e-03  4.9705386780010798e-03  -1.0066578822801412e-02  6.1427958992511737e-02  1.8049901094791980e+00  0.0000000000000000e+00  2.6906365330243975e-01  3.1497106675619357e-01  1.9316835587332859e-01  6.7159088609071368e-02  8.6308490701915586e-03  -2.5254115894919236e-03  -7.0999342436752139e-04  2.8805130437430121e-04  7.1442892987429469e-05  -5.2170891030919190e-05  -5.0903084439275210e-06  1.2203223141911002e-05  -1.0347126516633245e-06  -3.3940392042791130e-06  6.2413762640170791e-07  -1.0120377025897878e-09  -2.7532286892409465e-06  -2.9632753552003925e-06  8.1400381201281427e-06  7.3387960706923025e-05  3.2033112882109055e-04  9.7859122387700071e-04  2.3199902993373701e-03  4.3354487219432495e-03  6.5730339655316206e-03  7.9324363097302442e-03  8.6838502557663733e-03  -4.4012644054463963e-03  2.0925514990148528e-02  1.4539532518372964e+00  0.0000000000000000e+00  2.6277407445220863e-01  3.0528251444244747e-01  1.8402165735558929e-01  6.2076166035933300e-02  7.5180353065585157e-03  -2.1537905253447270e-03  -4.9194779451277378e-04  2.3531715703598333e-04  2.9853403514924145e-05  -3.7709626313301292e-05  2.9643554746566110e-06  6.4506921918036344e-06  -2.4790402139837106e-06  -8.9344720957307924e-07  8.9096913091759276e-07  -3.1931515107383360e-07  -1.2879352527394633e-06  -4.0253034337790013e-06  -8.1435397421158627e-06  1.9581091731922423e-05  2.0309784475966249e-04  8.2516837741391244e-04  2.2237188988156772e-03  4.5716115340724795e-03  7.1653391763974216e-03  8.8991194999931481e-03  9.1464411248973285e-03  2.5568673580612358e-04  -6.2943260699430707e-03  1.1567942153130510e+00  0.0000000000000000e+00  2.5488725545167901e-01  2.9693415762878139e-01  1.7956063466323971e-01  6.1165323158617654e-02  8.0036924977661440e-03  -1.7732470839653877e-03  -4.6220499377168682e-04  1.8249313405383478e-04  2.4928946163259268e-05  -2.7003952357463008e-05  2.2457081556215303e-06  3.8079361479023759e-06  -1.5112705031571387e-06  -2.7885571536046299e-07  3.8898843431280930e-07  3.7397342807421826e-08  2.7646681077189483e-07  -2.0484104721622763e-06  -1.0882615272691780e-05  -4.8718686091753035e-06  1.4670039675853555e-04  7.7455192258967540e-04  2.3951992530131423e-03  5.1910908822592515e-03  8.6909875201612915e-03  1.0813436299344946e-02  1.1445983876557455e-02  5.0458318538804444e-03  -1.7469559422521680e-02  9.0769585726650914e-01  0.0000000000000000e+00  2.4573020403642731e-01  2.8982733162175189e-01  1.7922986717956296e-01  6.3907203031069282e-02  9.9231051332605864e-03  -1.3141257172255582e-03  -5.4885675513461848e-04  1.2779016982815048e-04  3.8273262684308595e-05  -1.9441385261576794e-05  -1.5990671492081694e-06  2.8834560605472153e-06  -2.2085519211732628e-07  -2.2142410887144222e-07  1.6584060210976846e-08  3.3317050123151420e-08  9.1664838738372542e-07  -5.8307590547836661e-08  -1.1867699291942693e-05  -2.1008529619955648e-05  1.0778027145571523e-04  7.8646290150407867e-04  2.6092138316945422e-03  5.9652326548139036e-03  9.9903089992738961e-03  1.2840596161165776e-02  1.2411807439468988e-02  8.6410768089139577e-03  -2.3501036907789895e-02  7.0117344320857278e-01  0.0000000000000000e+00  2.3550373112511680e-01  2.8370452823932873e-01  1.8247360661170703e-01  7.0127758490462530e-02  1.3483441077056863e-02  -5.5810873600477533e-04  -7.0096514621402831e-04  4.4538358831481882e-05  5.8318040042384406e-05  -8.3193265760798243e-06  -6.1748210268909266e-06  1.1124512703516434e-06  8.3042174783859462e-07  1.7776338198015866e-07  -1.7066203809161074e-07  -1.7021402306500125e-07  1.5082676679563802e-06  1.4168462339327917e-06  -1.4283648627488653e-05  -3.4560966341663828e-05  1.0967367398502481e-04  9.0465157403141184e-04  3.1195540660400958e-03  7.0910248839207504e-03  1.2003901917106765e-02  1.5245410964012730e-02  1.4645971861372484e-02  1.1419566828204121e-02  -2.2374121308499841e-02  5.3207464680099814e-01  0.0000000000000000e+00  2.2439045064481619e-01  2.7818102587385574e-01  1.8874856252479089e-01  7.9878865608743216e-02  1.9217114207824678e-02  9.0171383439323837e-04  -8.2215956555745334e-04  -1.0533382633969192e-04  6.4741954707585634e-05  1.2823103788775962e-05  -6.3744377236055261e-06  -2.6098923317511378e-06  -1.4475166425666276e-07  -1.2631484406251452e-07  -6.3937152178634081e-07  7.4492203093805286e-09  3.0394659791117675e-06  1.3854977029506164e-06  -2.3957970543741743e-05  -4.6148926061568784e-05  1.6061856072423949e-04  1.2247486462544420e-03  3.9680143446370495e-03  8.8082637339756114e-03  1.4361641715362177e-02  1.8135861970506734e-02  1.6508750931114844e-02  1.3520871439844253e-02  -1.9907644414374221e-02  3.9557954985639604e-01  0.0000000000000000e+00  2.1243005294077705e-01  2.7277653875295721e-01  1.9740735752018615e-01  9.3321123723398333e-02  2.7939241154615966e-02  3.7764727001418814e-03  -6.5568353646481886e-04  -3.3521332492922903e-04  1.0690989849370009e-05  3.5755627290963977e-05  6.8044103676367312e-06  -2.3026272884504442e-06  -2.2228849291509707e-06  -1.5024050890902301e-06  -5.6148188351597560e-07  2.3712112686535656e-06  5.3226785655116333e-06  -5.9774793037690398e-06  -4.6824686503573746e-05  -4.5347927468530129e-05  3.4639528661861273e-04  1.8837443926080391e-03  5.4777355076156310e-03  1.1260336254875006e-02  1.7605849144577895e-02  2.1350002359223665e-02  1.9114587297368923e-02  1.4950593590118027e-02  -1.5060714503249951e-02  2.8720064233823145e-01  0.0000000000000000e+00  1.9973157784684023e-01  2.6693698276085071e-01  2.0771439358443547e-01  1.1056680157398399e-01  4.0724413489452049e-02  9.2282441432145253e-03  4.3118551235891468e-04  -5.1106501328680417e-04  -1.6180456137114194e-04  7.9598213032412361e-06  2.3880210369099133e-05  1.1554401717336960e-05  4.7845464165521074e-06  3.4549164598598357e-06  5.0837507524832336e-06  6.7985702860527926e-06  -1.3220528099448958e-06  -3.5945369762197581e-05  -7.9877677339647337e-05  4.5393448594184020e-05  8.4965688727914367e-04  3.2301756613075062e-03  7.9632907196756069e-03  1.4876450543630505e-02  2.1661881963925756e-02  2.5136516452089273e-02  2.1644470666764989e-02  1.6094284584160585e-02  -1.0541977538629571e-02  2.0278282236082404e-01  0.0000000000000000e+00  1.8620674709012003e-01  2.6001365360203971e-01  2.1862889098024646e-01  1.3144678453916930e-01  5.8718830358278865e-02  1.8981617661181303e-02  3.7654965818084561e-03  -3.6012368214864557e-05  -3.6089884728096350e-04  -1.5162833982203063e-04  -3.0424655212927278e-05  4.3887035258271641e-06  9.3316914217227809e-06  7.7044530218758713e-06  2.6315617554009043e-06  -1.2492054106089836e-05  -4.7770424419072544e-05  -9.1109391325024480e-05  -3.0025693410402832e-05  4.8208181019414976e-04  2.1371828106669663e-03  5.8216808347095065e-03  1.2035503898873683e-02  1.9938390633055376e-02  2.6835223635774581e-02  2.9256345861153391e-02  2.4424401230008552e-02  1.6834262381889401e-02  -5.9195448783346191e-03  1.3850339618934779e-01  0.0000000000000000e+00  1.7194553798605852e-01  2.5134532888474415e-01  2.2891911498723894e-01  1.5529955748814350e-01  8.2882396887784732e-02  3.5286466135270700e-02  1.1737322184759020e-02  2.7398426283418991e-03  1.8088655649968911e-04  -2.5107582488786561e-04  -2.0204326359269176e-04  -1.2083554655310011e-04  -7.7575277591186123e-05  -6.5183361534951610e-05  -7.4139080148070326e-05  -9.6259371679610945e-05  -1.0096691619566985e-04  1.9754496005422076e-05  5.4145578250407134e-04  1.9959039176220541e-03  5.1334228241924074e-03  1.0622277942305925e-02  1.8361074700999409e-02  2.6860827258778367e-02  3.3011592161130462e-02  3.3714139222233569e-02  2.6978653712622418e-02  1.7395248263336438e-02  -2.2158379357810603e-03  9.0872078239831081e-02  0.0000000000000000e+00  1.5675131833201525e-01  2.4013878008684236e-01  2.3683395916577582e-01  1.8053069647337255e-01  1.1328339689462127e-01  6.0382621299115813e-02  2.7840617456779827e-02  1.1215523926261640e-02  3.9452600282874149e-03  1.1758341584777801e-03  2.5009871263477696e-04  -1.7313126768798670e-05  -7.5474973411350767e-05  -6.7668442306709857e-05  -1.7391283828989703e-05  1.1946691996295477e-04  4.6914142908024487e-04  1.2874045456827648e-03  3.0056050629711129e-03  6.2072557554778774e-03  1.1454429068620722e-02  1.8876632018145920e-02  2.7665494092018999e-02  3.5718205941613235e-02  4.0037685680157274e-02  3.8100006676027455e-02  2.9221541215574510e-02  1.7633757426541365e-02  7.5663044997862630e-04  5.6730991079156863e-02  0.0000000000000000e+00  1.4072670881131202e-01  2.2571521706881431e-01  2.4046991503892534e-01  2.0453676429668982e-01  1.4845734425002094e-01  9.5452865045606239e-02  5.5923059042714954e-02  3.0664742293847493e-02  1.6218131751604727e-02  8.5879157786746350e-03  4.7761889079387977e-03  2.9581474352428317e-03  2.1677256255419781e-03  1.9588259718504386e-03  2.1840419141817054e-03  2.8860811779929736e-03  4.2572917491124889e-03  6.6199905011911243e-03  1.0376635839605769e-02  1.5882298990717969e-02  2.3198111824725601e-02  3.1775056264401871e-02  4.0176952438869602e-02  4.6163123123581708e-02  4.7252530654199439e-02  4.1980907186284395e-02  3.0756379299698072e-02  1.7570332764847936e-02  2.7654987168744417e-03  3.3254665425062356e-02  0.0000000000000000e+00  1.2358617243291584e-01  2.0719928591509049e-01  2.3732064713912146e-01  2.2315970877146538e-01  1.8413964024770643e-01  1.3847431236585392e-01  9.7639922090043477e-02  6.6240682277182855e-02  4.4380441142253715e-02  3.0181242694818301e-02  2.1428521257758730e-02  1.6312226105927610e-02  1.3600035160337084e-02  1.2564674102740567e-02  1.2852304046167674e-02  1.4364710277106504e-02  1.7162302318425190e-02  2.1368328263250514e-02  2.7050184777870249e-02  3.4061189941580000e-02  4.1864787182726008e-02  4.9385711991022041e-02  5.5029538795361557e-02  5.6935753526683681e-02  5.3601071491247015e-02  4.4625512839417070e-02  3.1293172909390113e-02  1.7060278127211857e-02  3.9553687659493039e-03  1.7950040146139448e-02  0.0000000000000000e+00  1.0544616248849233e-01  1.8407164929842870e-01  2.2515690447985909e-01  2.3142048199149687e-01  2.1323249808282177e-01  1.8250355811219915e-01  1.4880270815311811e-01  1.1803257260740756e-01  9.2841161378783565e-02  7.3714914398299233e-02  6.0041503396153328e-02  5.0848487322171253e-02  4.5202024765942678e-02  4.2362707838903862e-02  4.1802074202283997e-02  4.3152223318172311e-02  4.6125430169200655e-02  5.0420633483185824e-02  5.5623801571256543e-02  6.1118702038674422e-02  6.6026841097481359e-02  6.9229771347587524e-02  6.9495543837051019e-02  6.5765626369002614e-02  5.7531828588638867e-02  4.5234150865721821e-02  3.0465668087876135e-02  1.6015158918968188e-02  4.3932510217360070e-03  8.6564622618342246e-03  0.0000000000000000e+00  8.5976450261867898e-02  1.5554311654662106e-01  2.0138620498323306e-01  2.2321323418816447e-01  2.2530418965302240e-01  2.1388319932125438e-01  1.9505800802389689e-01  1.7368038271444092e-01  1.5300613961178253e-01  1.3486092720694565e-01  1.2001713435865770e-01  1.0858287672247291e-01  1.0030614928880441e-01  9.4771546625223080e-02  9.1503834268036127e-02  9.0006146714429774e-