<?xml version="1.0"?>
<VTKFile type="UnstructuredGrid"  version="0.1"  >
<UnstructuredGrid>
<Piece  NumberOfPoints="961" NumberOfCells="1800">
<Points>
<DataArray  type="Float64"  NumberOfComponents="3"  format="ascii">-1 -1 0  -0.9333333333333333 -1 0  -0.8666666666666667 -1 0  -0.8 -1 0  -0.7333333333333334 -1 0  -0.6666666666666667 -1 0  -0.6 -1 0  -0.5333333333333333 -1 0  -0.4666666666666667 -1 0  -0.4 -1 0  -0.3333333333333334 -1 0  -0.2666666666666667 -1 0  -0.2 -1 0  -0.1333333333333333 -1 0  -0.06666666666666665 -1 0  0 -1 0  0.06666666666666665 -1 0  0.1333333333333333 -1 0  0.2 -1 0  0.2666666666666666 -1 0  0.3333333333333333 -1 0  0.3999999999999999 -1 0  0.4666666666666666 -1 0  0.5333333333333334 -1 0  0.6000000000000001 -1 0  0.6666666666666667 -1 0  0.7333333333333334 -1 0  0.8 -1 0  0.8666666666666667 -1 0  0.9333333333333333 -1 0  1 -1 0  -1 -0.9333333333333333 0  -0.9333333333333333 -0.9333333333333333 0  -0.8666666666666667 -0.9333333333333333 0  -0.8 -0.9333333333333333 0  -0.7333333333333334 -0.9333333333333333 0  -0.6666666666666667 -0.9333333333333333 0  -0.6 -0.9333333333333333 0  -0.5333333333333333 -0.9333333333333333 0  -0.4666666666666667 -0.9333333333333333 0  -0.4 -0.9333333333333333 0  -0.3333333333333334 -0.9333333333333333 0  -0.2666666666666667 -0.9333333333333333 0  -0.2 -0.9333333333333333 0  -0.1333333333333333 -0.9333333333333333 0  -0.06666666666666665 -0.9333333333333333 0  0 -0.9333333333333333 0  0.06666666666666665 -0.9333333333333333 0  0.1333333333333333 -0.9333333333333333 0  0.2 -0.9333333333333333 0  0.2666666666666666 -0.9333333333333333 0  0.3333333333333333 -0.9333333333333333 0  0.3999999999999999 -0.9333333333333333 0  0.4666666666666666 -0.9333333333333333 0  0.5333333333333334 -0.9333333333333333 0  0.6000000000000001 -0.9333333333333333 0  0.6666666666666667 -0.9333333333333333 0  0.7333333333333334 -0.9333333333333333 0  0.8 -0.9333333333333333 0  0.8666666666666667 -0.9333333333333333 0  0.9333333333333333 -0.9333333333333333 0  1 -0.9333333333333333 0  -1 -0.8666666666666667 0  -0.9333333333333333 -0.8666666666666667 0  -0.8666666666666667 -0.8666666666666667 0  -0.8 -0.8666666666666667 0  -0.7333333333333334 -0.8666666666666667 0  -0.6666666666666667 -0.8666666666666667 0  -0.6 -0.8666666666666667 0  -0.5333333333333333 -0.8666666666666667 0  -0.4666666666666667 -0.8666666666666667 0  -0.4 -0.8666666666666667 0  -0.3333333333333334 -0.8666666666666667 0  -0.2666666666666667 -0.8666666666666667 0  -0.2 -0.8666666666666667 0  -0.1333333333333333 -0.8666666666666667 0  -0.06666666666666665 -0.8666666666666667 0  0 -0.8666666666666667 0  0.06666666666666665 -0.8666666666666667 0  0.1333333333333333 -0.8666666666666667 0  0.2 -0.8666666666666667 0  0.2666666666666666 -0.8666666666666667 0  0.3333333333333333 -0.8666666666666667 0  0.3999999999999999 -0.8666666666666667 0  0.4666666666666666 -0.8666666666666667 0  0.5333333333333334 -0.8666666666666667 0  0.6000000000000001 -0.8666666666666667 0  0.6666666666666667 -0.8666666666666667 0  0.7333333333333334 -0.8666666666666667 0  0.8 -0.8666666666666667 0  0.8666666666666667 -0.8666666666666667 0  0.9333333333333333 -0.8666666666666667 0  1 -0.8666666666666667 0  -1 -0.8 0  -0.9333333333333333 -0.8 0  -0.8666666666666667 -0.8 0  -0.8 -0.8 0  -0.7333333333333334 -0.8 0  -0.6666666666666667 -0.8 0  -0.6 -0.8 0  -0.5333333333333333 -0.8 0  -0.4666666666666667 -0.8 0  -0.4 -0.8 0  -0.3333333333333334 -0.8 0  -0.2666666666666667 -0.8 0  -0.2 -0.8 0  -0.1333333333333333 -0.8 0  -0.06666666666666665 -0.8 0  0 -0.8 0  0.06666666666666665 -0.8 0  0.1333333333333333 -0.8 0  0.2 -0.8 0  0.2666666666666666 -0.8 0  0.3333333333333333 -0.8 0  0.3999999999999999 -0.8 0  0.4666666666666666 -0.8 0  0.5333333333333334 -0.8 0  0.6000000000000001 -0.8 0  0.6666666666666667 -0.8 0  0.7333333333333334 -0.8 0  0.8 -0.8 0  0.8666666666666667 -0.8 0  0.9333333333333333 -0.8 0  1 -0.8 0  -1 -0.7333333333333334 0  -0.9333333333333333 -0.7333333333333334 0  -0.8666666666666667 -0.7333333333333334 0  -0.8 -0.7333333333333334 0  -0.7333333333333334 -0.7333333333333334 0  -0.6666666666666667 -0.7333333333333334 0  -0.6 -0.7333333333333334 0  -0.5333333333333333 -0.7333333333333334 0  -0.4666666666666667 -0.7333333333333334 0  -0.4 -0.7333333333333334 0  -0.3333333333333334 -0.7333333333333334 0  -0.2666666666666667 -0.7333333333333334 0  -0.2 -0.7333333333333334 0  -0.1333333333333333 -0.7333333333333334 0  -0.06666666666666665 -0.7333333333333334 0  0 -0.7333333333333334 0  0.06666666666666665 -0.7333333333333334 0  0.1333333333333333 -0.7333333333333334 0  0.2 -0.7333333333333334 0  0.2666666666666666 -0.7333333333333334 0  0.3333333333333333 -0.7333333333333334 0  0.3999999999999999 -0.7333333333333334 0  0.4666666666666666 -0.7333333333333334 0  0.5333333333333334 -0.7333333333333334 0  0.6000000000000001 -0.7333333333333334 0  0.6666666666666667 -0.7333333333333334 0  0.7333333333333334 -0.7333333333333334 0  0.8 -0.7333333333333334 0  0.8666666666666667 -0.7333333333333334 0  0.9333333333333333 -0.7333333333333334 0  1 -0.7333333333333334 0  -1 -0.6666666666666667 0  -0.9333333333333333 -0.6666666666666667 0  -0.8666666666666667 -0.6666666666666667 0  -0.8 -0.6666666666666667 0  -0.7333333333333334 -0.6666666666666667 0  -0.6666666666666667 -0.6666666666666667 0  -0.6 -0.6666666666666667 0  -0.5333333333333333 -0.6666666666666667 0  -0.4666666666666667 -0.6666666666666667 0  -0.4 -0.6666666666666667 0  -0.3333333333333334 -0.6666666666666667 0  -0.2666666666666667 -0.6666666666666667 0  -0.2 -0.6666666666666667 0  -0.1333333333333333 -0.6666666666666667 0  -0.06666666666666665 -0.6666666666666667 0  0 -0.6666666666666667 0  0.06666666666666665 -0.6666666666666667 0  0.1333333333333333 -0.6666666666666667 0  0.2 -0.6666666666666667 0  0.2666666666666666 -0.6666666666666667 0  0.3333333333333333 -0.6666666666666667 0  0.3999999999999999 -0.6666666666666667 0  0.4666666666666666 -0.6666666666666667 0  0.5333333333333334 -0.6666666666666667 0  0.6000000000000001 -0.6666666666666667 0  0.6666666666666667 -0.6666666666666667 0  0.7333333333333334 -0.6666666666666667 0  0.8 -0.6666666666666667 0  0.8666666666666667 -0.6666666666666667 0  0.9333333333333333 -0.6666666666666667 0  1 -0.6666666666666667 0  -1 -0.6 0  -0.9333333333333333 -0.6 0  -0.8666666666666667 -0.6 0  -0.8 -0.6 0  -0.7333333333333334 -0.6 0  -0.6666666666666667 -0.6 0  -0.6 -0.6 0  -0.5333333333333333 -0.6 0  -0.4666666666666667 -0.6 0  -0.4 -0.6 0  -0.3333333333333334 -0.6 0  -0.2666666666666667 -0.6 0  -0.2 -0.6 0  -0.1333333333333333 -0.6 0  -0.06666666666666665 -0.6 0  0 -0.6 0  0.06666666666666665 -0.6 0  0.1333333333333333 -0.6 0  0.2 -0.6 0  0.2666666666666666 -0.6 0  0.3333333333333333 -0.6 0  0.3999999999999999 -0.6 0  0.4666666666666666 -0.6 0  0.5333333333333334 -0.6 0  0.6000000000000001 -0.6 0  0.6666666666666667 -0.6 0  0.7333333333333334 -0.6 0  0.8 -0.6 0  0.8666666666666667 -0.6 0  0.9333333333333333 -0.6 0  1 -0.6 0  -1 -0.5333333333333333 0  -0.9333333333333333 -0.5333333333333333 0  -0.8666666666666667 -0.5333333333333333 0  -0.8 -0.5333333333333333 0  -0.7333333333333334 -0.5333333333333333 0  -0.6666666666666667 -0.5333333333333333 0  -0.6 -0.5333333333333333 0  -0.5333333333333333 -0.5333333333333333 0  -0.4666666666666667 -0.5333333333333333 0  -0.4 -0.5333333333333333 0  -0.3333333333333334 -0.5333333333333333 0  -0.2666666666666667 -0.5333333333333333 0  -0.2 -0.5333333333333333 0  -0.1333333333333333 -0.5333333333333333 0  -0.06666666666666665 -0.5333333333333333 0  0 -0.5333333333333333 0  0.06666666666666665 -0.5333333333333333 0  0.1333333333333333 -0.5333333333333333 0  0.2 -0.5333333333333333 0  0.2666666666666666 -0.5333333333333333 0  0.3333333333333333 -0.5333333333333333 0  0.3999999999999999 -0.5333333333333333 0  0.4666666666666666 -0.5333333333333333 0  0.5333333333333334 -0.5333333333333333 0  0.6000000000000001 -0.5333333333333333 0  0.6666666666666667 -0.5333333333333333 0  0.7333333333333334 -0.5333333333333333 0  0.8 -0.5333333333333333 0  0.8666666666666667 -0.5333333333333333 0  0.9333333333333333 -0.5333333333333333 0  1 -0.5333333333333333 0  -1 -0.4666666666666667 0  -0.9333333333333333 -0.4666666666666667 0  -0.8666666666666667 -0.4666666666666667 0  -0.8 -0.4666666666666667 0  -0.7333333333333334 -0.4666666666666667 0  -0.6666666666666667 -0.4666666666666667 0  -0.6 -0.4666666666666667 0  -0.5333333333333333 -0.4666666666666667 0  -0.4666666666666667 -0.4666666666666667 0  -0.4 -0.4666666666666667 0  -0.3333333333333334 -0.4666666666666667 0  -0.2666666666666667 -0.4666666666666667 0  -0.2 -0.4666666666666667 0  -0.1333333333333333 -0.4666666666666667 0  -0.06666666666666665 -0.4666666666666667 0  0 -0.4666666666666667 0  0.06666666666666665 -0.4666666666666667 0  0.1333333333333333 -0.4666666666666667 0  0.2 -0.4666666666666667 0  0.2666666666666666 -0.4666666666666667 0  0.3333333333333333 -0.4666666666666667 0  0.3999999999999999 -0.4666666666666667 0  0.4666666666666666 -0.4666666666666667 0  0.5333333333333334 -0.4666666666666667 0  0.6000000000000001 -0.4666666666666667 0  0.6666666666666667 -0.4666666666666667 0  0.7333333333333334 -0.4666666666666667 0  0.8 -0.4666666666666667 0  0.8666666666666667 -0.4666666666666667 0  0.9333333333333333 -0.4666666666666667 0  1 -0.4666666666666667 0  -1 -0.4 0  -0.9333333333333333 -0.4 0  -0.8666666666666667 -0.4 0  -0.8 -0.4 0  -0.7333333333333334 -0.4 0  -0.6666666666666667 -0.4 0  -0.6 -0.4 0  -0.5333333333333333 -0.4 0  -0.4666666666666667 -0.4 0  -0.4 -0.4 0  -0.3333333333333334 -0.4 0  -0.2666666666666667 -0.4 0  -0.2 -0.4 0  -0.1333333333333333 -0.4 0  -0.06666666666666665 -0.4 0  0 -0.4 0  0.06666666666666665 -0.4 0  0.1333333333333333 -0.4 0  0.2 -0.4 0  0.2666666666666666 -0.4 0  0.3333333333333333 -0.4 0  0.3999999999999999 -0.4 0  0.4666666666666666 -0.4 0  0.5333333333333334 -0.4 0  0.6000000000000001 -0.4 0  0.6666666666666667 -0.4 0  0.7333333333333334 -0.4 0 
[...]
<PointData  Scalars="f_24"> 
<DataArray  type="Float64"  Name="f_24"  format="ascii">0.0000000000000000e+00  0.0000000000000000e+00  0.0000000000000000e+00  0.0000000000000000e+00  0.0000000000000000e+00  0.0000000000000000e+00  0.0000000000000000e+00  0.0000000000000000e+00  0.0000000000000000e+00  0.0000000000000000e+00  0.0000000000000000e+00  0.0000000000000000e+00  0.0000000000000000e+00  0.0000000000000000e+00  0.0000000000000000e+00  0.0000000000000000e+00  0.0000000000000000e+00  0.0000000000000000e+00  0.0000000000000000e+00  0.0000000000000000e+00  0.0000000000000000e+00  0.0000000000000000e+00  0.0000000000000000e+00  0.0000000000000000e+00  0.0000000000000000e+00  0.0000000000000000e+00  0.0000000000000000e+00  0.0000000000000000e+00  0.0000000000000000e+00  0.0000000000000000e+00  1.4696196550423318e+01  0.0000000000000000e+00  -1.0527483741252425e-06  2.7638843564985712e-05  1.8156912792860165e-04  6.3690114540645353e-04  1.6493303723880549e-03  3.5542497032721699e-03  6.7724517122361716e-03  1.1822632642325427e-02  1.9341798463439586e-02  3.0115057926590260e-02  4.5116899032850877e-02  6.5566897445351130e-02  9.3003954165371119e-02  1.2938469193761859e-01  1.7721367626124004e-01  2.3971584457827896e-01  3.2106521304802871e-01  4.2668910954777445e-01  5.6367492294658805e-01  7.4131896228485683e-01  9.7187947502806482e-01  1.2716388470059561e+00  1.6624657855867575e+00  2.1742447254265986e+00  2.8489083509521382e+00  3.7476339622455259e+00  4.9646970757245850e+00  6.6566388172855966e+00  9.1123787077278084e+00  1.2832519249851796e+01  0.0000000000000000e+00  -3.2054995620461613e-08  4.1989136933915955e-05  2.4345483312023596e-04  7.8824691790658629e-04  1.8827733738571006e-03  3.7188407380669489e-03  6.4510646646928765e-03  1.0187476130245045e-02  1.4989875124055693e-02  2.0880602376350241e-02  2.7853486114895017e-02  3.5888263902406119e-02  4.4969620818576077e-02  5.5114272895541140e-02  6.6412682685746932e-02  7.9096777974680607e-02  9.3652680563985832e-02  1.1100989913266600e-01  1.3285888104665527e-01  1.6218263930407484e-01  2.0414517531700310e-01  2.6757912076572588e-01  3.6749993475257914e-01  5.2943981223045633e-01  7.9718120475544663e-01  1.2472560353987012e+00  2.0182225041793163e+00  3.3765345843401828e+00  5.8897296364242973e+00  1.1151981959132094e+01  0.0000000000000000e+00  3.8997190491569456e-07  3.8378514166633949e-05  2.0335490216722660e-04  5.9787581255091077e-04  1.2727674617472784e-03  2.1964704267458356e-03  3.2596704640081063e-03  4.3004162719208179e-03  5.1350754755712233e-03  5.5855951098887869e-03  5.4988996626905958e-03  4.7580542134051090e-03  3.2868328571122574e-03  1.0500957609377490e-03  -1.9473573139462408e-03  -5.6601637221424901e-03  -9.9945565680593842e-03  -1.4782116932465996e-02  -1.9710507188758098e-02  -2.4157101698473449e-02  -2.6808991860334391e-02  -2.4823159319270552e-02  -1.2013401978533119e-02  2.5010764937342719e-02  1.1502834029124774e-01  3.1980450424817369e-01  7.7308372611782106e-01  1.7734272202797994e+00  4.0431588166130439e+00  9.6421745567327388e+00  0.0000000000000000e+00  -5.2649399002455339e-08  2.5427952373187117e-05  1.2768272441201798e-04  3.3703796279692622e-04  6.1696162750578883e-04  8.7401496126904765e-04  1.0011986802845726e-03  9.2151851080186681e-04  6.1304370091570500e-04  1.1243704997598819e-04  -4.9707401083024893e-04  -1.1050737456441443e-03  -1.5941506921923220e-03  -1.8573082710027459e-03  -1.8116618502691298e-03  -1.4094087028123936e-03  -6.4832798051589989e-04  4.1517642937538606e-04  1.6478988688480979e-03  2.8189815656740258e-03  3.6002661808772064e-03  3.6836599372738711e-03  3.3263494138707143e-03  5.2162803526282133e-03  2.0081010857672849e-02  8.2183019945876498e-02  2.9085148174269926e-01  9.2174217774634026e-01  2.7496597946358294e+00  8.2911223639830212e+00  0.0000000000000000e+00  -9.7670684821901600e-07  1.1533903175281937e-05  6.1269958707230233e-05  1.4524751636445647e-04  2.1684563986304483e-04  2.1991437562120510e-04  1.3020502651258034e-04  -2.9407230797997204e-05  -2.0225975308961523e-04  -3.2486394852617047e-04  -3.5168622539025147e-04  -2.6913642967462786e-04  -9.7610710826877579e-05  1.1524764137870659e-04  3.0577936778782054e-04  4.0647973047556080e-04  3.5677053034840838e-04  1.1067153025768869e-04  -3.6128534035631906e-04  -1.0825990086633420e-03  -2.1093092285951651e-03  -3.6204305039624603e-03  -6.0490250701967100e-03  -9.9479703032021843e-03  -1.4086763579023560e-02  -5.9568689637220168e-03  7.3095157270282651e-02  4.4353209798804649e-01  1.8634817908143304e+00  7.0872861450729747e+00  0.0000000000000000e+00  -1.9195082509830161e-06  1.0710541085764499e-06  1.8574377310448129e-05  4.1501153764498978e-05  4.2203731671428864e-05  5.9245397598364464e-06  -5.1960490084014655e-05  -9.8075541731225903e-05  -1.0535770443599633e-04  -6.9146074999809035e-05  -7.3899653189909203e-06  5.0734217241999230e-05  7.9270914764774906e-05  6.6336361065130793e-05  1.8652828517827438e-05  -3.9756833698990760e-05  -7.2655474885080263e-05  -3.8074041914803573e-05  1.0591713987046228e-04  3.9741809010670277e-04  8.6623426832099424e-04  1.5074379231442500e-03  2.1561856705115353e-03  2.0945271665699975e-03  -3.5960766540304155e-04  -5.2244156614336765e-03  1.1965301344386024e-02  2.0312066833299303e-01  1.2504636022121061e+00  6.0195621070533925e+00  0.0000000000000000e+00  -2.5881837172684779e-06  -5.0345541461628916e-06  -3.0620435249552816e-06  -1.8051972346257558e-06  -1.1781852896059142e-05  -3.0516126445942605e-05  -4.2720051833811695e-05  -3.6467481186950604e-05  -1.4312982343474619e-05  9.8334600879301808e-06  2.1972993476722027e-05  1.7165385852785601e-05  1.2162203072791003e-06  -1.4171370966231837e-05  -1.8746257813724091e-05  -9.7835169993450168e-06  5.0589553778629661e-06  8.2680825524578619e-06  -2.4372768144850956e-05  -1.1848544702502815e-04  -2.9185964268311885e-04  -5.3409466958148676e-04  -7.8623749397005612e-04  -1.0528808595966469e-03  -2.2712088322844244e-03  -7.4716129928674799e-03  -1.3640248237731847e-02  6.9387385446568792e-02  8.1238064755012462e-01  5.0772818998358158e+00  0.0000000000000000e+00  -2.8904435403902004e-06  -7.6065333773716952e-06  -1.1166418440995667e-05  -1.4168955827623058e-05  -1.8954485167690198e-05  -2.1601603501635651e-05  -1.6587926962883997e-05  -5.2234190938376304e-06  5.0067138421430587e-06  7.8901073023265690e-06  3.6404625744349134e-06  -2.4137321930328899e-06  -4.8787403869112060e-06  -2.2955159314596820e-06  2.4831710309137431e-06  5.0598299496330719e-06  3.3376558013291645e-06  4.5989521034887357e-07  5.7319731057789532e-06  3.3133474516187156e-05  9.7340236944697044e-05  2.0890498310790638e-04  3.9824032524955977e-04  7.7471084156876537e-04  1.3845548143468129e-03  -1.5621425084472008e-04  -9.2584634783427679e-03  1.2660608096000650e-02  5.1810485442966214e-01  4.2502126161925506e+00  0.0000000000000000e+00  -2.8681993183876757e-06  -7.9178444448282031e-06  -1.2279051818907737e-05  -1.4155528956617315e-05  -1.3779940827180444e-05  -1.0181523440456789e-05  -3.8105465465308028e-06  1.7574256682264878e-06  3.3085373150630600e-06  1.3111641338545811e-06  -1.0927498027687522e-06  -1.5057674341796520e-06  -1.5724655413042913e-07  1.0580906379397497e-06  7.7134832277346971e-07  -6.2510445280979051e-07  -1.5991534265125446e-06  -1.3976496425553091e-06  -2.0530250342971845e-06  -9.3759301667657371e-06  -3.2763298469764865e-05  -8.5196481008007393e-05  -1.9654602680592854e-04  -3.3727695829903031e-04  -3.0319894110175443e-04  -3.3327055527340098e-04  -7.7104965791121990e-03  -1.4292142645235841e-02  3.0710898084202132e-01  3.5285567917566381e+00  0.0000000000000000e+00  -2.6204375466545972e-06  -7.0579339405158351e-06  -1.0536959714517083e-05  -1.0708991084806727e-05  -8.0420180146313332e-06  -3.8008379339474453e-06  3.5401156966531208e-08  1.5754155338150893e-06  8.6396957599686457e-07  -3.3068296230949593e-07  -5.8780729196176969e-07  -4.2982025405436488e-08  3.5182842447941625e-07  1.5038530191264207e-07  -2.2860503654875702e-07  -1.9533928045376159e-07  2.6295662463659143e-07  6.5246280896287855e-07  9.3704825484258910e-07  2.7726547724852084e-06  1.0863918259785363e-05  3.2967962243009188e-05  8.2527553666314108e-05  1.1339418906777631e-04  3.1097323593651081e-04  9.7145469553783009e-04  -1.5918798832423163e-03  -1.9423028854436516e-02  1.7220909844471999e-01  2.9029524050218916e+00  0.0000000000000000e+00  -2.2504645017092408e-06  -5.7584900333740868e-06  -8.0815813232835298e-06  -7.2385417856164990e-06  -4.2525845538344883e-06  -1.1216608319475634e-06  6.1915317822563414e-07  6.7977419539688229e-07  3.3427881771340229e-08  -2.6818681821740257e-07  -8.0533864000128095e-08  1.1853004208118805e-07  6.1750335287329992e-08  -6.8742586074902239e-08  -4.8819650668103481e-08  5.5294960752982406e-08  3.1867603263435830e-08  -1.5105968838844564e-07  -3.6795766504934742e-07  -8.4729312804565622e-07  -3.6242524377205192e-06  -1.1028906125553932e-05  -3.1304235741725603e-05  -5.5824020898708504e-05  -2.2956460888850366e-04  2.2911622732135235e-04  -4.0591648542338365e-04  -1.7990402266596477e-02  7.8503872500143221e-02  2.3644728773428603e+00  0.0000000000000000e+00  -1.8406043334994917e-06  -4.4320648436870038e-06  -5.8230987996858686e-06  -4.6453705956860499e-06  -2.1637340787765660e-06  -2.0706376839887516e-07  4.4799240230851551e-07  2.1306582783693347e-07  -8.7335179978383797e-08  -8.8725814582522964e-08  2.6000919949852589e-08  3.8894087570427061e-08  -1.4590254299493251e-08  -1.9967726331458494e-08  1.3229822320070420e-08  1.1932881828941584e-08  -1.4171506028573230e-08  9.1109529613265944e-09  1.0538880887796119e-07  2.3398513338459589e-07  1.3372173625868824e-06  2.3792548094277030e-06  1.4491824310373929e-05  2.4805504878571161e-05  5.2531335343430456e-05  9.7683594584482594e-05  1.4883774756100376e-03  -1.2745846681232628e-02  2.3541048205235289e-02  1.9046270729348620e+00  0.0000000000000000e+00  -1.4457452875505382e-06  -3.2705250649238158e-06  -4.0391793748994627e-06  -2.9222143445443357e-06  -1.1097936687415105e-06  3.4286514552084658e-08  2.4506717994470346e-07  5.0733894179261880e-08  -5.6838116661321516e-08  -1.7803495015605377e-08  1.9072451661799953e-08  4.2272116744818578e-09  -8.7582225499623852e-09  6.0368542475079271e-10  4.6309213685266909e-09  -2.8659006460805651e-09  -2.2283818549366146e-09  3.2410440845993515e-09  -2.4341632698049946e-08  -2.4347045562800584e-08  -6.2650440026132928e-07  4.7388394954042733e-07  -9.3132607424428165e-06  4.5500683678316550e-06  -5.6511036881532735e-05  -1.0879436421524191e-04  9.9973897533233162e-04  -7.4305808576055924e-03  -1.1240845394607105e-02  1.5153592988739579e+00  0.0000000000000000e+00  -1.0964760494485209e-06  -2.3356512929007520e-06  -2.7336371377850872e-06  -1.8366281386300825e-06  -5.9899190744450455e-07  6.3849534136148168e-08  1.2467929089624781e-07  8.6168665849993137e-09  -2.6243221141048578e-08  -1.4834313236141519e-09  7.0481246340348985e-09  -1.0777979640168256e-09  -1.9863104535970119e-09  1.2886805986107317e-09  1.5092412539937681e-10  -8.2480134857070563e-10  8.6966611708121301e-10  -1.6784334778946067e-09  1.4274756146192611e-08  -5.5295136564022395e-08  4.2397268910918701e-07  -1.0773856556427686e-06  5.6910481309105250e-06  -9.9040276942788469e-06  5.6699895292139944e-05  -1.6334711636380647e-04  9.6488435834998743e-04  -3.0341856392025273e-03  -2.7774271811401158e-02  1.1890493050969662e+00  0.0000000000000000e+00  -8.0550250288210522e-07  -1.6229269126479499e-06  -1.8183992714362239e-06  -1.1658134449611067e-06  -3.5178317264013510e-07  4.3249402399981407e-08  6.4640471122029697e-08  1.6678309166614748e-09  -1.1269592225893233e-08  2.6471663718858687e-10  2.2038723202105176e-09  -6.0896867890677332e-10  -3.1501859384689256e-10  4.0613965897589606e-10  -3.9023820092446546e-10  6.8720103903606694e-10  -1.9115957088418194e-09  7.2220676833794775e-09  -3.1693068294119551e-08  1.2880955376269530e-07  -5.0108970995157396e-07  1.4318348041931591e-06  -4.1476580559540269e-06  6.1034450550355300e-06  -9.5531221962310406e-06  -5.1809850619852304e-05  2.3500597384016475e-04  1.8715814673736907e-04  -3.5185145776625376e-02  9.1851228440145738e-01  0.0000000000000000e+00  -5.7403391498772948e-07  -1.1001203870382939e-06  -1.1928649627037984e-06  -7.5028637478616829e-07  -2.2726118012167552e-07  1.9249748623450080e-08  3.5410867609569139e-08  2.1992769202589673e-09  -4.9345016876737838e-09  -1.7298427184065143e-10  7.2701700245301860e-10  -1.2488321865398202e-10  -1.3997441006834762e-10  4.6640611126916026e-10  -1.5479483749629950e-09  4.8512318747528332e-09  -1.3908494696625497e-08  3.5136709733210071e-08  -7.4270294522439093e-08  1.1917848422920072e-07  -9.1997191541085922e-08  -1.7590845106595098e-07  1.1617537345520492e-06  -2.6723486506237829e-06  7.7479173448532614e-06  -3.5672527718523066e-06  -7.7650345506905574e-05  2.0349787009946293e-03  -3.5165756204205562e-02  6.9699887244575587e-01  0.0000000000000000e+00  -3.9684277209535923e-07  -7.2793052257672009e-07  -7.7196114733831350e-07  -4.8857171585915670e-07  -1.5891882877649541e-07  1.6331932299695285e-09  2.0009879288340308e-08  3.2431060329170995e-09  -2.0635095355063546e-09  -4.5975995592973144e-10  2.6016746276735569e-10  -3.5776796134833842e-11  -8.0731810410965197e-11  7.5333436389258696e-10  -3.2233931557537142e-09  1.0531233817856016e-08  -2.9863164802834874e-08  7.8943597527629306e-08  -2.0393609284594707e-07  5.2325811968250479e-07  -1.3188529842818969e-06  3.1970198096643553e-06  -7.4487168053644023e-06  1.6738599507581827e-05  -3.9741069072024370e-05  1.0704119104796862e-04  -4.4194873360683712e-04  2.9644342894605577e-03  -3.1876087727446441e-02  5.1819514774893882e-01  0.0000000000000000e+00  -2.6577670952699003e-07  -4.6961299357885161e-07  -4.9178956309045469e-07  -3.1974230932262875e-07  -1.1650939332906516e-07  -9.4376063842477499e-09  1.0654205673978537e-08  3.5225322467318674e-09  -5.3255081885126535e-10  -4.2314987645163967e-10  6.4598353729420971e-11  -1.2191114379344908e-10  1.7690830153527044e-10  2.8456218301274440e-10  -2.5242617817403928e-09  9.8734163020802307e-09  -2.9988256773635867e-08  7.8480467373452947e-08  -1.8425843250304793e-07  4.0194174838023118e-07  -8.5733854594877620e-07  1.9112727093952614e-06  -4.6771324577841001e-06  1.2718931634549746e-05  -3.7844474820176001e-05  1.2880149537050249e-04  -5.3368072413317944e-04  3.0832611417338997e-03  -2.6495508567247573e-02  3.7622263169083703e-01  0.0000000000000000e+00  -1.7195412230405759e-07  -2.9453771063455774e-07  -3.0709497760190615e-07  -2.0819337318707850e-07  -8.6609439960528635e-08  -1.5374215904321893e-08  4.2195614803653047e-09  2.9795709834608440e-09  3.2495359727832304e-10  -1.7584186008816667e-10  -6.3763255119081716e-11  -1.2032792947356803e-10  3.6336103430778397e-10  -6.5758750937777300e-10  4.1209849476016670e-10  2.6163750829812338e-09  -1.5355379132366996e-08  5.7421935924627318e-08  -1.8036716866940401e-07  5.0933669291363223e-07  -1.3293798949861025e-06  3.2800478670103313e-06  -7.8844648522184901e-06  1.9248388054283002e-05  -5.0425319183068972e-05  1.5083634320969266e-04  -5.5881319362007301e-04  2.7887307371834273e-03  -2.0740456509805303e-02  2.6563828851203442e-01  0.0000000000000000e+00  -1.0699470746030911e-07  -1.7874637474699683e-07  -1.8676260621029082e-07  -1.3322879802636278e-07  -6.3456860186639454e-08  -1.7410752247489683e-08  -3.4262333509587842e-10  1.8145685342531649e-09  6.6987063155215468e-10  9.3845823903295786e-11  -1.1273112856807628e-10  5.6593909167757168e-11  8.5728268680618354e-11  -6.2562694465850518e-10  1.6766304093113461e-09  -2.8200209817082683e-09  1.9001780698141931e-09  7.5651025664846928e-09  -4.3390578096618036e-08  1.5647583917221972e-07  -4.9677388935022525e-07  1.5007281587770121e-06  -4.4194825796081250e-06  1.2928886605256324e-05  -3.8767878849597734e-05  1.2535861438930389e-04  -4.6888427171698006e-04  2.2325297315613003e-03  -1.5216315279297191e-02  1.8143452531386822e-01  0.0000000000000000e+00  -6.3608574089513278e-08  -1.0423266896732700e-07  -1.0966117994342770e-07  -8.2630304408887643e-08  -4.4764845564606055e-08  -1.6546260289085732e-08  -3.2606565427412775e-09  3.8325899172859404e-10  5.5056437779792359e-10  2.0451699690003458e-10  -1.4769570350207930e-11  1.5231672389311903e-10  -2.7626611081860183e-10  2.3367619221932786e-10  3.9821715872682765e-10  -2.1410908904074598e-09  4.3775324775207773e-09  -1.5072736835499227e-09  -2.6438927921817482e-08  1.3457485454026797e-07  -4.6173611685155218e-07  1.3602310433156360e-06  -3.7821330887576417e-06  1.0521337425541858e-05  -3.0607190226173240e-05  9.7199639097260426e-05  -3.5616570570349654e-04  1.6296386119208622e-03  -1.0487172807516144e-02  1.1903919205842894e-01  0.0000000000000000e+00  -3.5792924352189997e-08  -5.7827667871170451e-08  -6.1454849402776248e-08  -4.8890885717850507e-08  -2.9772904941515506e-08  -1.3749436089053297e-08  -4.5777036190266673e-09  -8.6775584543948272e-10  8.8932694000390249e-11  1.2675010386188129e-10  1.0282004194849706e-10  2.9734900620532480e-11  -1.5062017684128295e-10  4.7639763267997008e-10  -8.0396665055618087e-10  3.8908348068478060e-10  2.8600964741432739e-09  -1.2887642163816843e-08  3.3779607011978746e-08  -5.9928087923539547e-08  4.3778291087238782e-08  1.9626608822617325e-07  -1.2425815731331351e-06  4.9216725636956058e-06  -1.7291345449626201e-05  6.0767645030274943e-05  -2.3294114776240270e-04  1.0701475609419104e-03  -6.7127421133696963e-03  7.4315581568560440e-02  0.0000000000000000e+00  -1.8809080311032029e-08  -3.0095523074424315e-08  -3.2364901966496890e-08  -2.7086224378266928e-08  -1.8273553256032608e-08  -1.0032973472023416e-08  -4.4928609415937857e-09  -1.5771055189946770e-09  -4.3800194446914213e-10  -4.5714011290321704e-11  3.7085420926855712e-11  -5.6891287184911802e-11  1.1920885124193687e-10  -9.3231513536080276e-12  -4.1668600571460880e-10  1.4529626790603645e-09  -3.3213004593295826e-09  6.0153936039944462e-09  -9.1250531981905468e-09  1.3298491603986270e-08  -2.9969201914489648e-08  1.2174630290198105e-07  -5.4476691257768081e-07  2.2367553246627953e-06  -8.5937027157014858e-06  3.2745552323961109e-05  -1.3277377401827478e-04  6.2668256801944240e-04  -3.9366593681589169e-03  4.3562429527859700e-02  0.0000000000000000e+00  -9.0509357704649592e-09  -1.4393813242168162e-08  -1.5675243818413866e-08  -1.3721341647429912e-08  -1.0094680389705573e-08  -6.3484928003570549e-09  -3.4764874605329489e-09  -1.6346479399718565e-09  -7.2524117256910067e-10  -2.1446516171243409e-10  -1.4086000737943716e-10  7.4073090422295264e-13  4.5078522292154468e-11  -1.9035488326398304e-10  3.0040901730504678e-10  -3.1533830134706212e-10  4.2516290279679681e-10  -1.7783303675738857e-09  7.4793636230170736e-09  -2.3534623175751681e-08  5.7693697755491390e-08  -1.0804653799503552e-07  1.0961695991065397e-07  2.8207058661376795e-07  -2.5584036191224412e-06  1.3090163482004120e-05  -6.1620630712397141e-05  3.1516273800076566e-04  -2.0587504183507284e-03  2.3513914480677287e-02  0.0000000000000000e+00  -3.8714674439486251e-09  -6.1324974385144232e-09  -6.7621952595403420e-09  -6.1497939938717788e-09  -4.8556686177897276e-09  -3.3933674581112535e-09  -2.1511436865378341e-09  -1.2161409935224129e-09  -6.7743977842753838e-10  -2.8407252819017228e-10  -2.2127790380216186e-10  2.8444702718984940e-11  -1.4356034130192165e-10  3.7921532483045194e-11  6.6486144405121636e-11  -5.3279278010290637e-11  -8.2894566786616670e-10  3.8309044347763288e-09  -1.0263194639978722e-08  1.9581222432160246e-08  -2.5935829264491050e-08  1.4553191944721235e-08  3.2647744693522936e-08  -7.9037095069526961e-08  -2.7328658880573071e-07  3.2925733330666109e-06  -2.1166194363565309e-05  1.2773901369235121e-04  -9.1792306906182046e-04  1.1339657832116748e-02  0.0000000000000000e+00  -1.4044025835724135e-09  -2.2141871242382238e-09  -2.4694541332940921e-09  -2.3178496695148716e-09  -1.9346691505643151e-09  -1.4657778472604349e-09  -1.0357151503467588e-0