<?xml version="1.0"?>
<VTKFile type="UnstructuredGrid"  version="0.1"  >
<UnstructuredGrid>
<Piece  NumberOfPoints="961" NumberOfCells="1800">
<Points>
<DataArray  type="Float64"  NumberOfComponents="3"  format="ascii">-1 -1 0  -0.9333333333333333 -1 0  -0.8666666666666667 -1 0  -0.8 -1 0  -0.7333333333333334 -1 0  -0.6666666666666667 -1 0  -0.6 -1 0  -0.5333333333333333 -1 0  -0.4666666666666667 -1 0  -0.4 -1 0  -0.3333333333333334 -1 0  -0.2666666666666667 -1 0  -0.2 -1 0  -0.1333333333333333 -1 0  -0.06666666666666665 -1 0  0 -1 0  0.06666666666666665 -1 0  0.1333333333333333 -1 0  0.2 -1 0  0.2666666666666666 -1 0  0.3333333333333333 -1 0  0.3999999999999999 -1 0  0.4666666666666666 -1 0  0.5333333333333334 -1 0  0.6000000000000001 -1 0  0.6666666666666667 -1 0  0.7333333333333334 -1 0  0.8 -1 0  0.8666666666666667 -1 0  0.9333333333333333 -1 0  1 -1 0  -1 -0.9333333333333333 0  -0.9333333333333333 -0.9333333333333333 0  -0.8666666666666667 -0.9333333333333333 0  -0.8 -0.9333333333333333 0  -0.7333333333333334 -0.9333333333333333 0  -0.6666666666666667 -0.9333333333333333 0  -0.6 -0.9333333333333333 0  -0.5333333333333333 -0.9333333333333333 0  -0.4666666666666667 -0.9333333333333333 0  -0.4 -0.9333333333333333 0  -0.3333333333333334 -0.9333333333333333 0  -0.2666666666666667 -0.9333333333333333 0  -0.2 -0.9333333333333333 0  -0.1333333333333333 -0.9333333333333333 0  -0.06666666666666665 -0.9333333333333333 0  0 -0.9333333333333333 0  0.06666666666666665 -0.9333333333333333 0  0.1333333333333333 -0.9333333333333333 0  0.2 -0.9333333333333333 0  0.2666666666666666 -0.9333333333333333 0  0.3333333333333333 -0.9333333333333333 0  0.3999999999999999 -0.9333333333333333 0  0.4666666666666666 -0.9333333333333333 0  0.5333333333333334 -0.9333333333333333 0  0.6000000000000001 -0.9333333333333333 0  0.6666666666666667 -0.9333333333333333 0  0.7333333333333334 -0.9333333333333333 0  0.8 -0.9333333333333333 0  0.8666666666666667 -0.9333333333333333 0  0.9333333333333333 -0.9333333333333333 0  1 -0.9333333333333333 0  -1 -0.8666666666666667 0  -0.9333333333333333 -0.8666666666666667 0  -0.8666666666666667 -0.8666666666666667 0  -0.8 -0.8666666666666667 0  -0.7333333333333334 -0.8666666666666667 0  -0.6666666666666667 -0.8666666666666667 0  -0.6 -0.8666666666666667 0  -0.5333333333333333 -0.8666666666666667 0  -0.4666666666666667 -0.8666666666666667 0  -0.4 -0.8666666666666667 0  -0.3333333333333334 -0.8666666666666667 0  -0.2666666666666667 -0.8666666666666667 0  -0.2 -0.8666666666666667 0  -0.1333333333333333 -0.8666666666666667 0  -0.06666666666666665 -0.8666666666666667 0  0 -0.8666666666666667 0  0.06666666666666665 -0.8666666666666667 0  0.1333333333333333 -0.8666666666666667 0  0.2 -0.8666666666666667 0  0.2666666666666666 -0.8666666666666667 0  0.3333333333333333 -0.8666666666666667 0  0.3999999999999999 -0.8666666666666667 0  0.4666666666666666 -0.8666666666666667 0  0.5333333333333334 -0.8666666666666667 0  0.6000000000000001 -0.8666666666666667 0  0.6666666666666667 -0.8666666666666667 0  0.7333333333333334 -0.8666666666666667 0  0.8 -0.8666666666666667 0  0.8666666666666667 -0.8666666666666667 0  0.9333333333333333 -0.8666666666666667 0  1 -0.8666666666666667 0  -1 -0.8 0  -0.9333333333333333 -0.8 0  -0.8666666666666667 -0.8 0  -0.8 -0.8 0  -0.7333333333333334 -0.8 0  -0.6666666666666667 -0.8 0  -0.6 -0.8 0  -0.5333333333333333 -0.8 0  -0.4666666666666667 -0.8 0  -0.4 -0.8 0  -0.3333333333333334 -0.8 0  -0.2666666666666667 -0.8 0  -0.2 -0.8 0  -0.1333333333333333 -0.8 0  -0.06666666666666665 -0.8 0  0 -0.8 0  0.06666666666666665 -0.8 0  0.1333333333333333 -0.8 0  0.2 -0.8 0  0.2666666666666666 -0.8 0  0.3333333333333333 -0.8 0  0.3999999999999999 -0.8 0  0.4666666666666666 -0.8 0  0.5333333333333334 -0.8 0  0.6000000000000001 -0.8 0  0.6666666666666667 -0.8 0  0.7333333333333334 -0.8 0  0.8 -0.8 0  0.8666666666666667 -0.8 0  0.9333333333333333 -0.8 0  1 -0.8 0  -1 -0.7333333333333334 0  -0.9333333333333333 -0.7333333333333334 0  -0.8666666666666667 -0.7333333333333334 0  -0.8 -0.7333333333333334 0  -0.7333333333333334 -0.7333333333333334 0  -0.6666666666666667 -0.7333333333333334 0  -0.6 -0.7333333333333334 0  -0.5333333333333333 -0.7333333333333334 0  -0.4666666666666667 -0.7333333333333334 0  -0.4 -0.7333333333333334 0  -0.3333333333333334 -0.7333333333333334 0  -0.2666666666666667 -0.7333333333333334 0  -0.2 -0.7333333333333334 0  -0.1333333333333333 -0.7333333333333334 0  -0.06666666666666665 -0.7333333333333334 0  0 -0.7333333333333334 0  0.06666666666666665 -0.7333333333333334 0  0.1333333333333333 -0.7333333333333334 0  0.2 -0.7333333333333334 0  0.2666666666666666 -0.7333333333333334 0  0.3333333333333333 -0.7333333333333334 0  0.3999999999999999 -0.7333333333333334 0  0.4666666666666666 -0.7333333333333334 0  0.5333333333333334 -0.7333333333333334 0  0.6000000000000001 -0.7333333333333334 0  0.6666666666666667 -0.7333333333333334 0  0.7333333333333334 -0.7333333333333334 0  0.8 -0.7333333333333334 0  0.8666666666666667 -0.7333333333333334 0  0.9333333333333333 -0.7333333333333334 0  1 -0.7333333333333334 0  -1 -0.6666666666666667 0  -0.9333333333333333 -0.6666666666666667 0  -0.8666666666666667 -0.6666666666666667 0  -0.8 -0.6666666666666667 0  -0.7333333333333334 -0.6666666666666667 0  -0.6666666666666667 -0.6666666666666667 0  -0.6 -0.6666666666666667 0  -0.5333333333333333 -0.6666666666666667 0  -0.4666666666666667 -0.6666666666666667 0  -0.4 -0.6666666666666667 0  -0.3333333333333334 -0.6666666666666667 0  -0.2666666666666667 -0.6666666666666667 0  -0.2 -0.6666666666666667 0  -0.1333333333333333 -0.6666666666666667 0  -0.06666666666666665 -0.6666666666666667 0  0 -0.6666666666666667 0  0.06666666666666665 -0.6666666666666667 0  0.1333333333333333 -0.6666666666666667 0  0.2 -0.6666666666666667 0  0.2666666666666666 -0.6666666666666667 0  0.3333333333333333 -0.6666666666666667 0  0.3999999999999999 -0.6666666666666667 0  0.4666666666666666 -0.6666666666666667 0  0.5333333333333334 -0.6666666666666667 0  0.6000000000000001 -0.6666666666666667 0  0.6666666666666667 -0.6666666666666667 0  0.7333333333333334 -0.6666666666666667 0  0.8 -0.6666666666666667 0  0.8666666666666667 -0.6666666666666667 0  0.9333333333333333 -0.6666666666666667 0  1 -0.6666666666666667 0  -1 -0.6 0  -0.9333333333333333 -0.6 0  -0.8666666666666667 -0.6 0  -0.8 -0.6 0  -0.7333333333333334 -0.6 0  -0.6666666666666667 -0.6 0  -0.6 -0.6 0  -0.5333333333333333 -0.6 0  -0.4666666666666667 -0.6 0  -0.4 -0.6 0  -0.3333333333333334 -0.6 0  -0.2666666666666667 -0.6 0  -0.2 -0.6 0  -0.1333333333333333 -0.6 0  -0.06666666666666665 -0.6 0  0 -0.6 0  0.06666666666666665 -0.6 0  0.1333333333333333 -0.6 0  0.2 -0.6 0  0.2666666666666666 -0.6 0  0.3333333333333333 -0.6 0  0.3999999999999999 -0.6 0  0.4666666666666666 -0.6 0  0.5333333333333334 -0.6 0  0.6000000000000001 -0.6 0  0.6666666666666667 -0.6 0  0.7333333333333334 -0.6 0  0.8 -0.6 0  0.8666666666666667 -0.6 0  0.9333333333333333 -0.6 0  1 -0.6 0  -1 -0.5333333333333333 0  -0.9333333333333333 -0.5333333333333333 0  -0.8666666666666667 -0.5333333333333333 0  -0.8 -0.5333333333333333 0  -0.7333333333333334 -0.5333333333333333 0  -0.6666666666666667 -0.5333333333333333 0  -0.6 -0.5333333333333333 0  -0.5333333333333333 -0.5333333333333333 0  -0.4666666666666667 -0.5333333333333333 0  -0.4 -0.5333333333333333 0  -0.3333333333333334 -0.5333333333333333 0  -0.2666666666666667 -0.5333333333333333 0  -0.2 -0.5333333333333333 0  -0.1333333333333333 -0.5333333333333333 0  -0.06666666666666665 -0.5333333333333333 0  0 -0.5333333333333333 0  0.06666666666666665 -0.5333333333333333 0  0.1333333333333333 -0.5333333333333333 0  0.2 -0.5333333333333333 0  0.2666666666666666 -0.5333333333333333 0  0.3333333333333333 -0.5333333333333333 0  0.3999999999999999 -0.5333333333333333 0  0.4666666666666666 -0.5333333333333333 0  0.5333333333333334 -0.5333333333333333 0  0.6000000000000001 -0.5333333333333333 0  0.6666666666666667 -0.5333333333333333 0  0.7333333333333334 -0.5333333333333333 0  0.8 -0.5333333333333333 0  0.8666666666666667 -0.5333333333333333 0  0.9333333333333333 -0.5333333333333333 0  1 -0.5333333333333333 0  -1 -0.4666666666666667 0  -0.9333333333333333 -0.4666666666666667 0  -0.8666666666666667 -0.4666666666666667 0  -0.8 -0.4666666666666667 0  -0.7333333333333334 -0.4666666666666667 0  -0.6666666666666667 -0.4666666666666667 0  -0.6 -0.4666666666666667 0  -0.5333333333333333 -0.4666666666666667 0  -0.4666666666666667 -0.4666666666666667 0  -0.4 -0.4666666666666667 0  -0.3333333333333334 -0.4666666666666667 0  -0.2666666666666667 -0.4666666666666667 0  -0.2 -0.4666666666666667 0  -0.1333333333333333 -0.4666666666666667 0  -0.06666666666666665 -0.4666666666666667 0  0 -0.4666666666666667 0  0.06666666666666665 -0.4666666666666667 0  0.1333333333333333 -0.4666666666666667 0  0.2 -0.4666666666666667 0  0.2666666666666666 -0.4666666666666667 0  0.3333333333333333 -0.4666666666666667 0  0.3999999999999999 -0.4666666666666667 0  0.4666666666666666 -0.4666666666666667 0  0.5333333333333334 -0.4666666666666667 0  0.6000000000000001 -0.4666666666666667 0  0.6666666666666667 -0.4666666666666667 0  0.7333333333333334 -0.4666666666666667 0  0.8 -0.4666666666666667 0  0.8666666666666667 -0.4666666666666667 0  0.9333333333333333 -0.4666666666666667 0  1 -0.4666666666666667 0  -1 -0.4 0  -0.9333333333333333 -0.4 0  -0.8666666666666667 -0.4 0  -0.8 -0.4 0  -0.7333333333333334 -0.4 0  -0.6666666666666667 -0.4 0  -0.6 -0.4 0  -0.5333333333333333 -0.4 0  -0.4666666666666667 -0.4 0  -0.4 -0.4 0  -0.3333333333333334 -0.4 0  -0.2666666666666667 -0.4 0  -0.2 -0.4 0  -0.1333333333333333 -0.4 0  -0.06666666666666665 -0.4 0  0 -0.4 0  0.06666666666666665 -0.4 0  0.1333333333333333 -0.4 0  0.2 -0.4 0  0.2666666666666666 -0.4 0  0.3333333333333333 -0.4 0  0.3999999999999999 -0.4 0  0.4666666666666666 -0.4 0  0.5333333333333334 -0.4 0  0.6000000000000001 -0.4 0  0.6666666666666667 -0.4 0  0.7333333333333334 -0.4 0 
[...]
<PointData  Scalars="f_24"> 
<DataArray  type="Float64"  Name="f_24"  format="ascii">0.0000000000000000e+00  0.0000000000000000e+00  0.0000000000000000e+00  0.0000000000000000e+00  0.0000000000000000e+00  0.0000000000000000e+00  0.0000000000000000e+00  0.0000000000000000e+00  0.0000000000000000e+00  0.0000000000000000e+00  0.0000000000000000e+00  0.0000000000000000e+00  0.0000000000000000e+00  0.0000000000000000e+00  0.0000000000000000e+00  0.0000000000000000e+00  0.0000000000000000e+00  0.0000000000000000e+00  0.0000000000000000e+00  0.0000000000000000e+00  0.0000000000000000e+00  0.0000000000000000e+00  0.0000000000000000e+00  0.0000000000000000e+00  0.0000000000000000e+00  0.0000000000000000e+00  0.0000000000000000e+00  0.0000000000000000e+00  0.0000000000000000e+00  0.0000000000000000e+00  1.3979454587008551e+01  0.0000000000000000e+00  2.2558249339737074e-03  1.1713516939198355e-02  3.0403328310299807e-02  5.8138233914537207e-02  9.3845640710981920e-02  1.3632011187038467e-01  1.8449639549427552e-01  2.3756018412590169e-01  2.9499223381345080e-01  3.5658445189750193e-01  4.2244776160842290e-01  4.9302279159807033e-01  5.6910145173808702e-01  6.5186691876759739e-01  7.4296041175558691e-01  8.4458551752142363e-01  9.5966508924288485e-01  1.0920726892131625e+00  1.2469716110753868e+00  1.4313121586427340e+00  1.6545665661316957e+00  1.9298294377584486e+00  2.2754972843177055e+00  2.7179033413295572e+00  3.2956097502792785e+00  4.0667784919708350e+00  5.1228456551852766e+00  6.6159914729546800e+00  8.8257645002275584e+00  1.2206669900930859e+01  0.0000000000000000e+00  4.1671414179430995e-03  1.9969546665534934e-02  4.9264001678902360e-02  8.8748045372496101e-02  1.3352503380317551e-01  1.7903867607835833e-01  2.2176057647098577e-01  2.5935404143597723e-01  2.9056063527054021e-01  3.1497702004751066e-01  3.3281487502381935e-01  3.4469132348187287e-01  3.5147073629583891e-01  3.5416322278819939e-01  3.5387885140973829e-01  3.5183717781440105e-01  3.4943761424150227e-01  3.4840804496849648e-01  3.5106941154728377e-01  3.6078859269796515e-01  3.8275215379208477e-01  4.2530079328378145e-01  5.0226139004989911e-01  6.3708758073276006e-01  8.7038720306317130e-01  1.2741230657745484e+00  1.9799687805250266e+00  3.2431996894668216e+00  5.6049553172254383e+00  1.0608093381027565e+01  0.0000000000000000e+00  5.4660028177330499e-03  2.4005240573861820e-02  5.5028342011060549e-02  9.0652481142600036e-02  1.2251184910037238e-01  1.4495172347632579e-01  1.5558620505706924e-01  1.5469168149185289e-01  1.4419530106887676e-01  1.2674618627601716e-01  1.0504822219829679e-01  8.1473167698457458e-02  5.7896387973252070e-02  3.5678510149352291e-02  1.5727501328685976e-02  -1.4038234182156396e-03  -1.5409055520126246e-02  -2.6113560358991768e-02  -3.3339471627948876e-02  -3.6706297182621528e-02  -3.5265982280478753e-02  -2.6749517258462210e-02  -5.9414954869962053e-03  3.8863070120008024e-02  1.3356063281369854e-01  3.3503525637786158e-01  7.6882882248246820e-01  1.7171620373291279e+00  3.8707682569701451e+00  9.1719201545363109e+00  0.0000000000000000e+00  6.1183416852153508e-03  2.4448141809500740e-02  5.1248367731953577e-02  7.5441904218754602e-02  8.8661070504914632e-02  8.8446146713942617e-02  7.7085857291916221e-02  5.9142714711125241e-02  3.9291543998786566e-02  2.1105556269199376e-02  6.6896256753066468e-03  -3.1592283369240590e-03  -8.5758516118905580e-03  -1.0237499656691433e-02  -9.0553330474895388e-03  -5.9700310494099056e-03  -1.8388358023874805e-03  2.6101324703187699e-03  6.7799882334903441e-03  1.0185446128405240e-02  1.2443588689312621e-02  1.3361513478614346e-02  1.3396776484853901e-02  1.5310089452442567e-02  2.9310001529107385e-02  8.7676173657577142e-02  2.8400476977318651e-01  8.8091059350590795e-01  2.6115225356461935e+00  7.8867595547565683e+00  0.0000000000000000e+00  6.2090853271452749e-03  2.2479018611108428e-02  4.2642852395833611e-02  5.5097438619499652e-02  5.4603335093575935e-02  4.3503124548536491e-02  2.7755421099162823e-02  1.2949056328276885e-02  2.3108775188327223e-03  -3.3906982219994407e-03  -5.0111595963065877e-03  -4.0644035511030853e-03  -2.0329351952537707e-03  -2.5454740967774646e-05  1.3040699502427974e-03  1.6939894865335362e-03  1.1609524189716009e-03  -1.1326829124011442e-04  -1.8732291655360260e-03  -3.8599559818991475e-03  -5.8759580791657544e-03  -7.8724960159704295e-03  -1.0063597138733022e-02  -1.2805894559550213e-02  -1.4860513378497467e-02  -4.6031382783134935e-03  7.3406362048419799e-02  4.2676678172362342e-01  1.7802362813637700e+00  6.7416351210496499e+00  0.0000000000000000e+00  5.8808529821909204e-03  1.9267320159963360e-02  3.2887610733826650e-02  3.6787032390586304e-02  2.9775499537523811e-02  1.7495985732157424e-02  6.2843219722169786e-03  -5.3357429335214920e-04  -2.8851818625443568e-03  -2.4213526111846496e-03  -9.8023178993239101e-04  2.2561017210040015e-04  7.3721847224949134e-04  6.2602799630774976e-04  2.0228812901336318e-04  -2.0263680707602108e-04  -3.4973161395295227e-04  -1.2454402043795296e-04  4.7736826837377409e-04  1.3842573431501418e-03  2.4830125316445740e-03  3.6301882863392070e-03  4.5729155133028060e-03  4.6105959519230277e-03  2.2046872961344372e-03  -2.5165370277981667e-03  1.3289847632008309e-02  1.9500509737218086e-01  1.1875018878973587e+00  5.7259845988387035e+00  0.0000000000000000e+00  5.2869408803604863e-03  1.5697226846372966e-02  2.4065826804040708e-02  2.3073532478408813e-02  1.4704667648550749e-02  5.4571160349448861e-03  -2.3857149626497519e-04  -1.8940395338733268e-03  -1.2706043836235405e-03  -2.1383581585619066e-04  3.5127270537955638e-04  3.5357458845378288e-04  9.9872791615497730e-05  -1.1355928978399862e-04  -1.6013622499588633e-04  -7.1862292289254497e-05  3.8328519246252369e-05  5.1165088544626731e-05  -1.1393431500542242e-04  -4.8286110192428158e-04  -1.0278027389763330e-03  -1.6658995567931504e-03  -2.2596654967738782e-03  -2.7202781822580910e-03  -3.8197919386511246e-03  -8.3949950643562657e-03  -1.3248949217867926e-02  6.6042974119149722e-02  7.7490670999110733e-01  4.8296599396087148e+00  0.0000000000000000e+00  4.5612663012430483e-03  1.2314763697042951e-02  1.6986560949758717e-02  1.3877118648393690e-02  6.6501242148848038e-03  9.2844280326868618e-04  -1.1947754266859721e-03  -9.2153885799054337e-04  -1.2957635840740234e-04  2.3548817701336195e-04  1.6997823916118407e-04  -3.9272854648138160e-06  -7.8618152554989107e-05  -4.2989031135758764e-05  2.0601375569589376e-05  4.5456093037030553e-05  2.4527715538306240e-05  -8.5836441555473870e-08  3.1065412631635879e-05  1.6577224476669268e-04  4.2318420496664696e-04  7.8678673213517143e-04  1.2384029740489476e-03  1.8160843403337552e-03  2.5162018604195694e-03  1.1232705490231009e-03  -7.7440350577708339e-03  1.3317848284452642e-02  4.9268876995972849e-01  4.0429273009065136e+00  0.0000000000000000e+00  3.8050307070878618e-03  9.3882917777491914e-03  1.1707633016315864e-02  8.1416812242534886e-03  2.7537326358207767e-03  -3.6051300022186855e-04  -8.0773113544916481e-04  -2.3350134105496590e-04  1.3359271897716272e-04  1.1633083540013314e-04  -4.8391807862795282e-06  -4.4585473783578065e-05  -1.3405148723762295e-05  1.6240878760272022e-05  1.3092022345263219e-05  -6.1086127636143683e-06  -1.5746603117985507e-05  -1.1335453559352103e-05  -1.3843563925520688e-05  -5.6684870331038753e-05  -1.6973369068161098e-04  -3.6662039503894530e-04  -6.6293129057341620e-04  -9.8902618019393578e-04  -1.1188423587925975e-03  -1.2337430529627289e-03  -8.0581153473774075e-03  -1.4239298273825455e-02  2.9212441918990439e-01  3.3564670463407524e+00  0.0000000000000000e+00  3.0854328601595061e-03  7.0003353499239690e-03  7.9533887769231704e-03  4.7337058852397716e-03  1.0266373865974142e-03  -5.2091621888956030e-04  -3.8891260268711272e-04  1.2582767165538291e-05  9.8754821959093681e-05  1.5921200018844609e-05  -2.7244365122653895e-05  -9.7715458714532893e-06  8.9277321907053872e-06  5.6271820838445575e-06  -3.5996393893959471e-06  -3.5880882780511918e-06  3.0112022448760465e-06  7.0200361284498214e-06  8.2614759522832118e-06  2.0216889278294738e-05  6.5373714699850177e-05  1.6194076837147331e-04  3.3057400274632100e-04  4.9781038216556808e-04  8.4186688308710814e-04  1.5782164080406637e-03  -7.8772580897343194e-04  -1.7731175476920755e-02  1.6447243893731753e-01  2.7613737455819374e+00  0.0000000000000000e+00  2.4408676862499546e-03  5.1285767436293518e-03  5.3633498834186879e-03  2.7694905736808479e-03  3.2652042859083655e-04  -3.9646208623233858e-04  -1.5585410459939439e-04  5.5433341801646539e-05  4.1029963744940362e-05  -1.0993793551334601e-05  -1.1794267952006213e-05  3.3684738246085016e-06  4.0719635093194176e-06  -1.4998572181392347e-06  -1.8005359772701359e-06  9.0576559451273265e-07  7.8861598945966788e-07  -1.9189230043021036e-06  -4.1881850978121026e-06  -7.8467095598816192e-06  -2.4508247466491512e-05  -6.5374991421702643e-05  -1.5636144756546515e-04  -2.6497090035401341e-04  -5.6944927353900078e-04  -2.0847057393510158e-04  -9.5897229190543710e-04  -1.7532520937766527e-02  7.4024837886195280e-02  2.2491561743623962e+00  0.0000000000000000e+00  1.8883346152740075e-03  3.7028156884314099e-03  3.6086999127177438e-03  1.6546167462997623e-03  7.3486126237392915e-05  -2.5639710100716211e-04  -5.5503681035558385e-05  4.2638578015516981e-05  1.2181722436311968e-05  -9.9639399110815075e-06  -2.2977797788349110e-06  3.0871916367336805e-06  2.2388265875292518e-07  -1.1537985131966943e-06  1.9176059948524664e-07  5.1389519234852430e-07  -2.4098165068005092e-07  2.0367498912814419e-08  1.4200661843230365e-06  3.0384535199310695e-06  9.4520093114224338e-06  2.2633024592088797e-05  7.4755132544060917e-05  1.2689452635171705e-04  2.6940791149451630e-04  3.4111303448005508e-04  1.8856360529109439e-03  -1.1808811071648313e-02  2.3146410050902334e-02  1.8117373144763080e+00  0.0000000000000000e+00  1.4305568186795249e-03  2.6392577298484593e-03  2.4306098610003416e-03  1.0223485572746706e-03  -7.0829046907909128e-07  -1.5809059060708155e-04  -1.9579528641535942e-05  2.5581708004638079e-05  2.6587064432586866e-06  -5.3535690811016141e-06  2.3044604861727604e-07  1.2707549346566267e-06  -4.0726178023312439e-07  -2.5944875395779493e-07  2.4991144874651746e-07  -1.3495352679321128e-08  -1.2924705763696641e-07  4.7864447905738562e-08  -2.8647142809494248e-07  -8.7059356552736317e-07  -4.1113712609920946e-06  -5.3284958421403490e-06  -3.8384578944840822e-05  -3.6649969239160801e-05  -1.8999466661380818e-04  -2.2685038642443275e-04  5.9199430882618889e-04  -7.2199741506027114e-03  -1.1317199624904873e-02  1.4414543537796805e+00  0.0000000000000000e+00  1.0617270510656193e-03  1.8582877211727783e-03  1.6411115107080895e-03  6.5859684699171093e-04  -1.0660883955358851e-05  -9.7820123668084882e-05  -9.1758749534823884e-06  1.4395982424678867e-05  6.4914454315232486e-07  -2.5469010050474379e-06  3.5135288947983408e-07  4.2589044790622027e-07  -2.1668448559203616e-07  -1.4999415659798797e-08  6.8516172390580105e-08  -3.9059530803521986e-08  4.2330629968598255e-09  1.9172584595357210e-08  9.0288869432513773e-08  -3.5885252655602622e-08  2.2741120064226890e-06  -1.0482847360104910e-06  2.1360136362831016e-05  -1.2120626779691838e-06  1.3997123798882466e-04  -1.1309134967609553e-04  1.1842215116389023e-03  -2.8099502973910956e-03  -2.5877442468510894e-02  1.1310586861903609e+00  0.0000000000000000e+00  7.7165672266547489e-04  1.2919159087014778e-03  1.1102270679168326e-03  4.4283666778746340e-04  -1.6668084490672584e-06  -6.1891330372209605e-05  -7.2772293085829412e-06  8.0394770066054664e-06  6.7174159525007310e-07  -1.2219787605247767e-06  1.0182979255212835e-07  1.5979185094756495e-07  -6.4074981342025664e-08  1.7594363652744961e-09  9.7506170968746927e-09  -7.3335850649203520e-09  2.1177612428993959e-09  1.3290344450751331e-08  -1.0564528636451852e-07  3.8359437662004257e-07  -1.8431086620845661e-06  3.6026985246321928e-06  -1.4572521836147351e-05  1.2712798680440992e-05  -6.5589775987668082e-05  -4.6444349462073616e-05  3.4374242608731810e-05  1.6599178262786265e-04  -3.3869994621209126e-02  8.7371591168803442e-01  0.0000000000000000e+00  5.4851893220910690e-04  8.8552523293966394e-04  7.5079726963011228e-04  3.0878969008843091e-04  9.9054273175193777e-06  -3.9676209570095697e-05  -7.5225713986584567e-06  4.2990119871407991e-06  9.4397723752107741e-07  -5.5762842302843314e-07  -5.8834883415547471e-08  6.5041255151131369e-08  -6.4192262626741677e-09  -1.5429872818869532e-09  -5.7373319982708547e-10  4.1054501227202060e-09  -1.1724395251224397e-08  1.9060994450216106e-08  1.7875615712007244e-08  -2.4865657176636826e-07  1.1857673417391861e-06  -3.1789811057771383e-06  9.6169218550634516e-06  -1.4819533439454423e-05  4.6339983487528522e-05  -2.6483708654183624e-05  5.4921140774830715e-05  1.9213087734205869e-03  -3.3152840347987843e-02  6.6300583631422283e-01  0.0000000000000000e+00  3.8051271472128140e-04  5.9688666105054799e-04  5.0544835109903670e-04  2.2054446222237082e-04  1.8867558589917669e-05  -2.4885482653788657e-05  -7.7731548538989959e-06  1.8151406190427712e-06  1.0152601681628901e-06  -1.4692108876070769e-07  -1.0086455064794241e-07  1.0313546012739140e-08  5.7326114144804825e-09  5.9726736293953445e-10  -2.9937840009191300e-09  9.9723063122388088e-09  -3.0240247276106834e-08  9.4231805361176795e-08  -2.9973295276530360e-07  9.0844697729597989e-07  -2.5223192105600205e-06  6.1765864738940270e-06  -1.4379775191588830e-05  2.8630829704830867e-05  -6.5581892195116948e-05  1.2966744639133747e-04  -5.0475658889581555e-04  2.8477292806174314e-03  -3.0518333787306607e-02  4.9292247217228552e-01  0.0000000000000000e+00  2.5677137732001842e-04  3.9414111420051453e-04  3.3676238272877879e-04  1.5883893195076289e-04  2.4015195645500936e-05  -1.4302178394787771e-05  -7.3697770255853600e-06  1.6335239154019585e-08  8.0457991221209649e-07  1.1825204587248603e-07  -5.6442967753376783e-08  -1.7652163328305673e-08  2.5772012332889644e-10  7.5639201476612543e-10  -2.3104415695385609e-09  9.3030895811196483e-09  -2.5385010421340431e-08  4.9287698269080848e-08  -5.2366059420479056e-08  -5.3537511247181590e-08  4.2101891482489053e-07  -1.1150435044420965e-06  1.7167961330812159e-06  1.1278776435192055e-06  -1.6111508793508253e-05  9.7875816170519915e-05  -4.5466028078401953e-04  2.9052419854037883e-03  -2.5075660384812133e-02  3.5787403742741897e-01  0.0000000000000000e+00  1.6777817669511272e-04  2.5362018837837933e-04  2.2036447176387592e-04  1.1344058048009383e-04  2.5475502562308242e-05  -6.5144785541895837e-06  -6.1965120316261759e-06  -1.2183014465214549e-06  3.5656237718529852e-07  2.2062634408898000e-07  2.4351074052479850e-08  -1.1101680948426705e-08  -4.5775614176098262e-09  -1.8029112921032036e-09  1.0071863152913270e-10  2.5683749270025892e-09  -1.9223193097735593e-08  8.5941754272289855e-08  -3.0652271822212691e-07  9.2086390441278666e-07  -2.4083490655966253e-06  5.6621081617904272e-06  -1.2456699676547032e-05  2.6831165468837167e-05  -6.1844286427395432e-05  1.6203598715145529e-04  -5.6357214078689227e-04  2.6756107962050001e-03  -1.9802814328134483e-02  2.5268295630665710e-01  0.0000000000000000e+00  1.0548245711254631e-04  1.5789373462954612e-04  1.4026091038763435e-04  7.8976868697778991e-05  2.3857605882688291e-05  -1.0400149581074523e-06  -4.4366178210830128e-06  -1.8378856413408959e-06  -1.8687381865357471e-07  1.3813917490012131e-07  7.2706628283474602e-08  1.6917070411925563e-08  1.7087118727863890e-09  -7.9850059598522437e-10  1.4020505378420248e-09  -3.0958312207812652e-09  8.3469239388844065e-09  -2.9664251305650645e-08  9.9696162855479309e-08  -2.6472780909605397e-07  5.2576860397053654e-07  -6.3509830966408502e-07  -4.5301783360565666e-07  6.1851019529243541e-06  -2.7635196453032162e-05  1.0679800702557475e-04  -4.2756833074178647e-04  2.1076988985014844e-03  -1.4433126167947766e-02  1.7258585909887109e-01  0.0000000000000000e+00  6.3248109293936370e-05  9.4173622483716450e-05  8.5779241778432337e-05  5.2643566895770145e-05  2.0025291606561928e-05  2.2596502254800753e-06  -2.4933897811204945e-06  -1.8379695189464214e-06  -6.2524186518858140e-07  -7.9147206545448911e-08  3.4935604652130867e-08  2.7795911426420865e-08  1.1501244308702102e-08  4.8120564782391745e-09  2.2788910623589859e-09  -2.6180580822583634e-10  -3.9602316337139418e-09  3.9947375148788700e-08  -1.6412550284773275e-07  4.9769442198122086e-07  -1.2590725980980623e-06  2.8629152646224312e-06  -6.2588535996200047e-06  1.4087890422656878e-05  -3.4900164286252050e-05  1.0002943217990182e-04  -3.4886277580721629e-04  1.5599805502922507e-03  -9.9956795432072990e-03  1.1323358215476932e-01  0.0000000000000000e+00  3.5719066219525368e-05  5.3078340553150854e-05  4.9599739692546042e-05  3.2916253578428188e-05  1.5005826302078440e-05  3.5723556673655617e-06  -8.5698676006274719e-07  -1.3906224881952793e-06  -8.0682658786962441e-07  -3.0732972103093712e-07  -8.1034609204239584e-08  -1.0358930601690790e-08  2.7416354354439959e-09  4.0042359682119716e-09  9.1356908008773607e-10  -2.8135781396761199e-10  1.3436312269040343e-08  -5.5742410023752024e-08  1.6120995763682973e-07  -3.6922115651045406e-07  6.7462559742038464e-07  -9.3467996608659216e-07  5.8612894157976043e-07  2.1442375357135135e-06  -1.3075028600341875e-05  5.3606305258568356e-05  -2.1646059502896620e-04  1.0126916490442040e-03  -6.3762253617834150e-03  7.0691167886897610e-02  0.0000000000000000e+00  1.8653612046828511e-05  2.7711839986026034e-05  2.6514372306377938e-05  1.8808278575529554e-05  9.8572038465844494e-06  3.3424014725670015e-06  1.1122023940543405e-07  -8.1804527990442046e-07  -7.3437598330351957e-07  -4.3189232550155060e-07  -2.0794753878645669e-07  -8.7869966666577211e-08  -3.7013911893812140e-08  -1.5544742679211092e-08  -8.7903683832408158e-09  -9.4098416425614753e-10  -1.8936561147388545e-08  4.6046359002241163e-08  -1.2442688555702690e-07  2.5874326328598339e-07  -4.9030361978471535e-07  8.6649931302194539e-07  -1.6174941339419099e-06  3.5934122327675381e-06  -9.9898650810525708e-06  3.3262575897740338e-05  -1.2867789610652563e-04  5.9856841265482302e-04  -3.7481272359936257e-03  4.1437864769638892e-02  0.0000000000000000e+00  8.7565853267379763e-06  1.2995774955034690e-05  1.2666073633021167e-05  9.4537885562577390e-06  5.4715165527835605e-06  2.2594573920604436e-06  3.6429513432043148e-07  -4.1423771007344320e-07  -5.5098150024517402e-07  -4.3250089755183150e-07  -2.8088261604285126e-07  -1.6171672870552906e-07  -9.2339108177043265e-08  -5.0240103523917315e-08  -2.9838495868015854e-08  -2.0842311474267494e-08  1.8411030506610578e-09  -4.8898304138554959e-08  9.6002939619454391e-08  -2.1127098946717538e-07  3.6793947358934741e-07  -5.7705109953789696e-07  7.4088731067709992e-07  -5.1678778738430534e-07  -1.5385923592312441e-06  1.1491555361539536e-05  -5.7626784525437819e-05  2.9882207642774246e-04  -1.9571318077257920e-03  2.2367127339213661e-02  0.0000000000000000e+00  3.5253095617630863e-06  5.1970043971608043e-06  5.1035030494448523e-06  3.9141558612141609e-06  2.3806613386700768e-06  1.0533542605731019e-06  1.7381250357826878e-07  -2.6416764241084209e-07  -3.9766287794794589e-07  -3.6656350877654704e-07  -2.8468287277411656e-07  -1.9495125438601243e-07  -1.3164980363602562e-07  -8.1163632744021869e-08  -5.4841637947149213e-08  -2.8477885669486512e-08  -3.6399908357502000e-08  2.5380050619680932e-08  -9.2192252548859387e-08  1.4448832422501171e-07  -2.3129614812759605e-07  2.9114751516635525e-07  -3.1452032977163274e-07  3.1158824065907450e-07  -6.6118191635216788e-07  3.5193697647651233e-06  -2.0489705141144236e-05  1.2182353762437037e-04  -8.7345804718016995e-04  1.0786616193679427e-02  0.0000000000000000e+00  1.1149031911013453e-06  1.6004340708814105e-06  1.5394856236763968e-06  1.1524214928507180e-06  6.6158608205140544e-07  2.2554062351851233e-07  -7.9610236570206121e-08  -2.4347338461894692e-07  -2.9820146036100413e-07  -2.8120506668320768e-07  -2.3657763458