<?xml version="1.0"?>
<VTKFile type="UnstructuredGrid"  version="0.1"  >
<UnstructuredGrid>
<Piece  NumberOfPoints="961" NumberOfCells="1800">
<Points>
<DataArray  type="Float64"  NumberOfComponents="3"  format="ascii">-1 -1 0  -0.9333333333333333 -1 0  -0.8666666666666667 -1 0  -0.8 -1 0  -0.7333333333333334 -1 0  -0.6666666666666667 -1 0  -0.6 -1 0  -0.5333333333333333 -1 0  -0.4666666666666667 -1 0  -0.4 -1 0  -0.3333333333333334 -1 0  -0.2666666666666667 -1 0  -0.2 -1 0  -0.1333333333333333 -1 0  -0.06666666666666665 -1 0  0 -1 0  0.06666666666666665 -1 0  0.1333333333333333 -1 0  0.2 -1 0  0.2666666666666666 -1 0  0.3333333333333333 -1 0  0.3999999999999999 -1 0  0.4666666666666666 -1 0  0.5333333333333334 -1 0  0.6000000000000001 -1 0  0.6666666666666667 -1 0  0.7333333333333334 -1 0  0.8 -1 0  0.8666666666666667 -1 0  0.9333333333333333 -1 0  1 -1 0  -1 -0.9333333333333333 0  -0.9333333333333333 -0.9333333333333333 0  -0.8666666666666667 -0.9333333333333333 0  -0.8 -0.9333333333333333 0  -0.7333333333333334 -0.9333333333333333 0  -0.6666666666666667 -0.9333333333333333 0  -0.6 -0.9333333333333333 0  -0.5333333333333333 -0.9333333333333333 0  -0.4666666666666667 -0.9333333333333333 0  -0.4 -0.9333333333333333 0  -0.3333333333333334 -0.9333333333333333 0  -0.2666666666666667 -0.9333333333333333 0  -0.2 -0.9333333333333333 0  -0.1333333333333333 -0.9333333333333333 0  -0.06666666666666665 -0.9333333333333333 0  0 -0.9333333333333333 0  0.06666666666666665 -0.9333333333333333 0  0.1333333333333333 -0.9333333333333333 0  0.2 -0.9333333333333333 0  0.2666666666666666 -0.9333333333333333 0  0.3333333333333333 -0.9333333333333333 0  0.3999999999999999 -0.9333333333333333 0  0.4666666666666666 -0.9333333333333333 0  0.5333333333333334 -0.9333333333333333 0  0.6000000000000001 -0.9333333333333333 0  0.6666666666666667 -0.9333333333333333 0  0.7333333333333334 -0.9333333333333333 0  0.8 -0.9333333333333333 0  0.8666666666666667 -0.9333333333333333 0  0.9333333333333333 -0.9333333333333333 0  1 -0.9333333333333333 0  -1 -0.8666666666666667 0  -0.9333333333333333 -0.8666666666666667 0  -0.8666666666666667 -0.8666666666666667 0  -0.8 -0.8666666666666667 0  -0.7333333333333334 -0.8666666666666667 0  -0.6666666666666667 -0.8666666666666667 0  -0.6 -0.8666666666666667 0  -0.5333333333333333 -0.8666666666666667 0  -0.4666666666666667 -0.8666666666666667 0  -0.4 -0.8666666666666667 0  -0.3333333333333334 -0.8666666666666667 0  -0.2666666666666667 -0.8666666666666667 0  -0.2 -0.8666666666666667 0  -0.1333333333333333 -0.8666666666666667 0  -0.06666666666666665 -0.8666666666666667 0  0 -0.8666666666666667 0  0.06666666666666665 -0.8666666666666667 0  0.1333333333333333 -0.8666666666666667 0  0.2 -0.8666666666666667 0  0.2666666666666666 -0.8666666666666667 0  0.3333333333333333 -0.8666666666666667 0  0.3999999999999999 -0.8666666666666667 0  0.4666666666666666 -0.8666666666666667 0  0.5333333333333334 -0.8666666666666667 0  0.6000000000000001 -0.8666666666666667 0  0.6666666666666667 -0.8666666666666667 0  0.7333333333333334 -0.8666666666666667 0  0.8 -0.8666666666666667 0  0.8666666666666667 -0.8666666666666667 0  0.9333333333333333 -0.8666666666666667 0  1 -0.8666666666666667 0  -1 -0.8 0  -0.9333333333333333 -0.8 0  -0.8666666666666667 -0.8 0  -0.8 -0.8 0  -0.7333333333333334 -0.8 0  -0.6666666666666667 -0.8 0  -0.6 -0.8 0  -0.5333333333333333 -0.8 0  -0.4666666666666667 -0.8 0  -0.4 -0.8 0  -0.3333333333333334 -0.8 0  -0.2666666666666667 -0.8 0  -0.2 -0.8 0  -0.1333333333333333 -0.8 0  -0.06666666666666665 -0.8 0  0 -0.8 0  0.06666666666666665 -0.8 0  0.1333333333333333 -0.8 0  0.2 -0.8 0  0.2666666666666666 -0.8 0  0.3333333333333333 -0.8 0  0.3999999999999999 -0.8 0  0.4666666666666666 -0.8 0  0.5333333333333334 -0.8 0  0.6000000000000001 -0.8 0  0.6666666666666667 -0.8 0  0.7333333333333334 -0.8 0  0.8 -0.8 0  0.8666666666666667 -0.8 0  0.9333333333333333 -0.8 0  1 -0.8 0  -1 -0.7333333333333334 0  -0.9333333333333333 -0.7333333333333334 0  -0.8666666666666667 -0.7333333333333334 0  -0.8 -0.7333333333333334 0  -0.7333333333333334 -0.7333333333333334 0  -0.6666666666666667 -0.7333333333333334 0  -0.6 -0.7333333333333334 0  -0.5333333333333333 -0.7333333333333334 0  -0.4666666666666667 -0.7333333333333334 0  -0.4 -0.7333333333333334 0  -0.3333333333333334 -0.7333333333333334 0  -0.2666666666666667 -0.7333333333333334 0  -0.2 -0.7333333333333334 0  -0.1333333333333333 -0.7333333333333334 0  -0.06666666666666665 -0.7333333333333334 0  0 -0.7333333333333334 0  0.06666666666666665 -0.7333333333333334 0  0.1333333333333333 -0.7333333333333334 0  0.2 -0.7333333333333334 0  0.2666666666666666 -0.7333333333333334 0  0.3333333333333333 -0.7333333333333334 0  0.3999999999999999 -0.7333333333333334 0  0.4666666666666666 -0.7333333333333334 0  0.5333333333333334 -0.7333333333333334 0  0.6000000000000001 -0.7333333333333334 0  0.6666666666666667 -0.7333333333333334 0  0.7333333333333334 -0.7333333333333334 0  0.8 -0.7333333333333334 0  0.8666666666666667 -0.7333333333333334 0  0.9333333333333333 -0.7333333333333334 0  1 -0.7333333333333334 0  -1 -0.6666666666666667 0  -0.9333333333333333 -0.6666666666666667 0  -0.8666666666666667 -0.6666666666666667 0  -0.8 -0.6666666666666667 0  -0.7333333333333334 -0.6666666666666667 0  -0.6666666666666667 -0.6666666666666667 0  -0.6 -0.6666666666666667 0  -0.5333333333333333 -0.6666666666666667 0  -0.4666666666666667 -0.6666666666666667 0  -0.4 -0.6666666666666667 0  -0.3333333333333334 -0.6666666666666667 0  -0.2666666666666667 -0.6666666666666667 0  -0.2 -0.6666666666666667 0  -0.1333333333333333 -0.6666666666666667 0  -0.06666666666666665 -0.6666666666666667 0  0 -0.6666666666666667 0  0.06666666666666665 -0.6666666666666667 0  0.1333333333333333 -0.6666666666666667 0  0.2 -0.6666666666666667 0  0.2666666666666666 -0.6666666666666667 0  0.3333333333333333 -0.6666666666666667 0  0.3999999999999999 -0.6666666666666667 0  0.4666666666666666 -0.6666666666666667 0  0.5333333333333334 -0.6666666666666667 0  0.6000000000000001 -0.6666666666666667 0  0.6666666666666667 -0.6666666666666667 0  0.7333333333333334 -0.6666666666666667 0  0.8 -0.6666666666666667 0  0.8666666666666667 -0.6666666666666667 0  0.9333333333333333 -0.6666666666666667 0  1 -0.6666666666666667 0  -1 -0.6 0  -0.9333333333333333 -0.6 0  -0.8666666666666667 -0.6 0  -0.8 -0.6 0  -0.7333333333333334 -0.6 0  -0.6666666666666667 -0.6 0  -0.6 -0.6 0  -0.5333333333333333 -0.6 0  -0.4666666666666667 -0.6 0  -0.4 -0.6 0  -0.3333333333333334 -0.6 0  -0.2666666666666667 -0.6 0  -0.2 -0.6 0  -0.1333333333333333 -0.6 0  -0.06666666666666665 -0.6 0  0 -0.6 0  0.06666666666666665 -0.6 0  0.1333333333333333 -0.6 0  0.2 -0.6 0  0.2666666666666666 -0.6 0  0.3333333333333333 -0.6 0  0.3999999999999999 -0.6 0  0.4666666666666666 -0.6 0  0.5333333333333334 -0.6 0  0.6000000000000001 -0.6 0  0.6666666666666667 -0.6 0  0.7333333333333334 -0.6 0  0.8 -0.6 0  0.8666666666666667 -0.6 0  0.9333333333333333 -0.6 0  1 -0.6 0  -1 -0.5333333333333333 0  -0.9333333333333333 -0.5333333333333333 0  -0.8666666666666667 -0.5333333333333333 0  -0.8 -0.5333333333333333 0  -0.7333333333333334 -0.5333333333333333 0  -0.6666666666666667 -0.5333333333333333 0  -0.6 -0.5333333333333333 0  -0.5333333333333333 -0.5333333333333333 0  -0.4666666666666667 -0.5333333333333333 0  -0.4 -0.5333333333333333 0  -0.3333333333333334 -0.5333333333333333 0  -0.2666666666666667 -0.5333333333333333 0  -0.2 -0.5333333333333333 0  -0.1333333333333333 -0.5333333333333333 0  -0.06666666666666665 -0.5333333333333333 0  0 -0.5333333333333333 0  0.06666666666666665 -0.5333333333333333 0  0.1333333333333333 -0.5333333333333333 0  0.2 -0.5333333333333333 0  0.2666666666666666 -0.5333333333333333 0  0.3333333333333333 -0.5333333333333333 0  0.3999999999999999 -0.5333333333333333 0  0.4666666666666666 -0.5333333333333333 0  0.5333333333333334 -0.5333333333333333 0  0.6000000000000001 -0.5333333333333333 0  0.6666666666666667 -0.5333333333333333 0  0.7333333333333334 -0.5333333333333333 0  0.8 -0.5333333333333333 0  0.8666666666666667 -0.5333333333333333 0  0.9333333333333333 -0.5333333333333333 0  1 -0.5333333333333333 0  -1 -0.4666666666666667 0  -0.9333333333333333 -0.4666666666666667 0  -0.8666666666666667 -0.4666666666666667 0  -0.8 -0.4666666666666667 0  -0.7333333333333334 -0.4666666666666667 0  -0.6666666666666667 -0.4666666666666667 0  -0.6 -0.4666666666666667 0  -0.5333333333333333 -0.4666666666666667 0  -0.4666666666666667 -0.4666666666666667 0  -0.4 -0.4666666666666667 0  -0.3333333333333334 -0.4666666666666667 0  -0.2666666666666667 -0.4666666666666667 0  -0.2 -0.4666666666666667 0  -0.1333333333333333 -0.4666666666666667 0  -0.06666666666666665 -0.4666666666666667 0  0 -0.4666666666666667 0  0.06666666666666665 -0.4666666666666667 0  0.1333333333333333 -0.4666666666666667 0  0.2 -0.4666666666666667 0  0.2666666666666666 -0.4666666666666667 0  0.3333333333333333 -0.4666666666666667 0  0.3999999999999999 -0.4666666666666667 0  0.4666666666666666 -0.4666666666666667 0  0.5333333333333334 -0.4666666666666667 0  0.6000000000000001 -0.4666666666666667 0  0.6666666666666667 -0.4666666666666667 0  0.7333333333333334 -0.4666666666666667 0  0.8 -0.4666666666666667 0  0.8666666666666667 -0.4666666666666667 0  0.9333333333333333 -0.4666666666666667 0  1 -0.4666666666666667 0  -1 -0.4 0  -0.9333333333333333 -0.4 0  -0.8666666666666667 -0.4 0  -0.8 -0.4 0  -0.7333333333333334 -0.4 0  -0.6666666666666667 -0.4 0  -0.6 -0.4 0  -0.5333333333333333 -0.4 0  -0.4666666666666667 -0.4 0  -0.4 -0.4 0  -0.3333333333333334 -0.4 0  -0.2666666666666667 -0.4 0  -0.2 -0.4 0  -0.1333333333333333 -0.4 0  -0.06666666666666665 -0.4 0  0 -0.4 0  0.06666666666666665 -0.4 0  0.1333333333333333 -0.4 0  0.2 -0.4 0  0.2666666666666666 -0.4 0  0.3333333333333333 -0.4 0  0.3999999999999999 -0.4 0  0.4666666666666666 -0.4 0  0.5333333333333334 -0.4 0  0.6000000000000001 -0.4 0  0.6666666666666667 -0.4 0  0.7333333333333334 -0.4 0 
[...]
<PointData  Scalars="f_24"> 
<DataArray  type="Float64"  Name="f_24"  format="ascii">0.0000000000000000e+00  0.0000000000000000e+00  0.0000000000000000e+00  0.0000000000000000e+00  0.0000000000000000e+00  0.0000000000000000e+00  0.0000000000000000e+00  0.0000000000000000e+00  0.0000000000000000e+00  0.0000000000000000e+00  0.0000000000000000e+00  0.0000000000000000e+00  0.0000000000000000e+00  0.0000000000000000e+00  0.0000000000000000e+00  0.0000000000000000e+00  0.0000000000000000e+00  0.0000000000000000e+00  0.0000000000000000e+00  0.0000000000000000e+00  0.0000000000000000e+00  0.0000000000000000e+00  0.0000000000000000e+00  0.0000000000000000e+00  0.0000000000000000e+00  0.0000000000000000e+00  0.0000000000000000e+00  0.0000000000000000e+00  0.0000000000000000e+00  0.0000000000000000e+00  1.4769861542186172e+01  0.0000000000000000e+00  -1.2691980817749396e-06  5.1896647981708932e-06  6.0527186969238755e-05  2.5456786711143276e-04  7.3421129416145325e-04  1.7108797903594734e-03  3.4709151555671930e-03  6.3909457008819275e-03  1.0960075840746247e-02  1.7811114607602655e-02  2.7763730985896712e-02  4.1883421353265844e-02  6.1561565353031103e-02  8.8623729569704768e-02  1.2547587134239097e-01  1.7530132594948133e-01  2.4232556625474411e-01  3.3217089204467115e-01  4.5232986583573986e-01  6.1279573260215825e-01  8.2690388568576101e-01  1.1124701568651183e+00  1.4933818655217797e+00  2.0019577327491014e+00  2.6827557338610757e+00  3.5993555154064532e+00  4.8476593792148845e+00  6.5846422098816539e+00  9.0986306670844979e+00  1.2896842520270344e+01  0.0000000000000000e+00  -1.5244121658945049e-06  6.8495444816585953e-06  7.3623441368956882e-05  2.9146048588080229e-04  7.8243137326976611e-04  1.6789327843750737e-03  3.1082711987773116e-03  5.1827600606251436e-03  7.9950965412246468e-03  1.1618127074372368e-02  1.6108286381596382e-02  2.1512747819483358e-02  2.7881599520798040e-02  3.5288342183755816e-02  4.3865141939024757e-02  5.3864391104109691e-02  6.5766600498365718e-02  8.0468636057553652e-02  9.9609152379554519e-02  1.2612489816152894e-01  1.6519083704922996e-01  2.2579499563392280e-01  3.2337270162631004e-01  4.8426537480165305e-01  7.5351741808571704e-01  1.2092861895072644e+00  1.9918246295342983e+00  3.3689235637896457e+00  5.9097290050678133e+00  1.1207881501325906e+01  0.0000000000000000e+00  -1.7942326555629661e-06  3.1388145035931303e-06  4.9861000528902472e-05  1.9169111878906666e-04  4.6968227716151484e-04  8.8893657806923473e-04  1.4109324261985994e-03  1.9588368370319032e-03  2.4298108464159232e-03  2.7089664466222207e-03  2.6816065360090206e-03  2.2422866625842774e-03  1.3005732195465161e-03  -2.1583819618648843e-04  -2.3594190166465194e-03  -5.1603631088447521e-03  -8.6188491235299047e-03  -1.2681373264933611e-02  -1.7176130594166731e-02  -2.1650388701750706e-02  -2.4984946900201626e-02  -2.4522642003020997e-02  -1.4172899277993103e-02  1.9602069502526336e-02  1.0618309885001606e-01  3.0858310945797629e-01  7.6249198626968528e-01  1.7691560894795799e+00  4.0541622744321408e+00  9.6905061578283469e+00  0.0000000000000000e+00  -2.1708708440592982e-06  -2.3818492499658675e-06  1.8576352639303568e-05  8.1115368379489021e-05  1.8121067422518098e-04  2.8449633299738305e-04  3.4059632810217567e-04  3.0432810703750823e-04  1.5266481027395934e-04  -1.0741673839934466e-04  -4.3985727175969465e-04  -7.8637083940335292e-04  -1.0761254570926251e-03  -1.2360503504977333e-03  -1.2008677506511981e-03  -9.2325784414778490e-04  -3.8586029856901876e-04  3.8191106170451278e-04  1.2787881069717154e-03  2.0989946510476462e-03  2.5145600018578762e-03  2.1720921696810713e-03  1.2318982499088685e-03  2.2805156633793049e-03  1.6084413000144515e-02  7.7346959016635103e-02  2.8655499602146456e-01  9.2144924239792603e-01  2.7616124120170240e+00  8.3326817877803325e+00  0.0000000000000000e+00  -2.5197697804972698e-06  -6.7639790958699918e-06  -3.6885347621949248e-06  1.2644356639837370e-05  3.0787378191472092e-05  2.8922824281938876e-05  -7.2509363846077031e-06  -7.3062153253101547e-05  -1.4600163351729059e-04  -1.9595759959451357e-04  -1.9769048818090584e-04  -1.4023060377242155e-04  -3.0977227485878427e-05  1.0522841982543503e-04  2.3057565651344539e-04  3.0064167144156487e-04  2.7121163278647902e-04  1.0404946358269946e-04  -2.3142476100820449e-04  -7.6851987011215394e-04  -1.5842109462481065e-03  -2.8994991704831908e-03  -5.2296534485795562e-03  -9.2643559823667038e-03  -1.3917364543602283e-02  -6.6565896850843739e-03  7.1728438794444516e-02  4.4350634390212107e-01  1.8706384765244064e+00  7.1228113147116972e+00  0.0000000000000000e+00  -2.7083682342069411e-06  -8.9501236734358881e-06  -1.4185411209356426e-05  -1.5520165576421115e-05  -1.8818351459992855e-05  -3.0376776805944573e-05  -4.7356464647148406e-05  -5.8701201481341999e-05  -5.3700875272931747e-05  -2.9927782016027577e-05  4.7397083107760300e-06  3.6021852801129952e-05  5.0002057878760548e-05  3.9407990443800336e-05  7.3783482003287001e-06  -3.1774102911872842e-05  -5.4206031597613370e-05  -2.9410165292858527e-05  7.7174981077973015e-05  3.0299586242904265e-04  6.8582175926237365e-04  1.2364701820782129e-03  1.8030407546392329e-03  1.6532243306947839e-03  -9.6740538838566202e-04  -6.1456019426005190e-03  1.0766480709665642e-02  2.0270413501447898e-01  1.2560326571336078e+00  6.0497352876794572e+00  0.0000000000000000e+00  -2.6887180469511471e-06  -9.1993766322621189e-06  -1.6373902185081938e-05  -2.0825424342185672e-05  -2.3726583620893918e-05  -2.5808551261393620e-05  -2.4260785738243954e-05  -1.6350307868830863e-05  -3.6770505089663379e-06  8.0110409722355006e-06  1.2824879109450044e-05  8.7946621794216750e-06  -8.8425314456119841e-07  -9.8022495337066118e-06  -1.2057681863030811e-05  -5.9230676009639001e-06  3.8107794799042693e-06  5.2680669373069328e-06  -1.9354820332685378e-05  -9.0597640719872327e-05  -2.2379893148305626e-04  -4.0855748550724637e-04  -5.8722512503182889e-04  -7.7720219174468800e-04  -1.9575601068937427e-03  -7.2687354816475987e-03  -1.3721120166873704e-02  6.9447702652869384e-02  8.1605769384292792e-01  5.1027318812678022e+00  0.0000000000000000e+00  -2.4884503517901195e-06  -8.2422554373654158e-06  -1.4411542529976705e-05  -1.7233985771348148e-05  -1.6480277973363557e-05  -1.2978438186725830e-05  -7.2169042104548246e-06  -7.6377321223308094e-07  3.6393899452366370e-06  4.1257820307569863e-06  1.3974096715613308e-06  -1.8040194931986888e-06  -2.8429685734004174e-06  -1.0818219238960785e-06  1.8275912966039081e-06  3.3275704949166324e-06  2.1742749711401391e-06  4.4470944839172905e-07  4.5203345309019370e-06  2.4435948385210641e-05  7.1051366497358267e-05  1.5291830923241622e-04  3.0173331892298263e-04  6.3717756959544758e-04  1.2019513393192393e-03  -4.0526118323943596e-04  -9.6933361027074123e-03  1.2220417928828125e-02  5.2024353226077813e-01  4.2715168955881051e+00  0.0000000000000000e+00  -2.1714103966552385e-06  -6.7630843094691040e-06  -1.1135218047937573e-05  -1.1941085985739221e-05  -9.2741538347486282e-06  -4.9838495908130671e-06  -8.9208766897414607e-07  1.5169254420300885e-06  1.6782153906228761e-06  4.0905737236228513e-07  -7.3659187608876739e-07  -7.7601590191229084e-07  2.6171151755680909e-08  6.5402061609325127e-07  4.0590506368163621e-07  -4.6122566321994026e-07  -1.0470473527548342e-06  -9.2427144135602419e-07  -1.4572562290723857e-06  -6.6237156831738773e-06  -2.3210047210589496e-05  -6.2098855390816448e-05  -1.5104220323585335e-04  -2.6324238093001178e-04  -1.8445786189096237e-04  -1.9681150573085706e-04  -7.6077718252901454e-03  -1.4348660677728685e-02  3.0872428569740268e-01  3.5462437562788991e+00  0.0000000000000000e+00  -1.8041951045913576e-06  -5.2205061060950534e-06  -7.9757523925747559e-06  -7.5641006399430395e-06  -4.6749518885070078e-06  -1.4773348263331651e-06  4.9527077452938258e-07  8.8130106099607492e-07  3.0746087702921489e-07  -2.5703385284409619e-07  -2.8740184842884264e-07  2.3873071759294880e-08  1.9940122070769222e-07  5.9959350305524334e-08  -1.4587361733422770e-07  -1.0234832117523304e-07  1.8259216855278148e-07  4.1856531445857354e-07  6.1065590261793611e-07  1.8781571671824571e-06  7.5825124128678263e-06  2.4003225971658537e-05  6.1365751787775255e-05  7.6815495020680631e-05  2.4520313121820182e-04  8.9735783003701492e-04  -1.7585215932619334e-03  -1.9687759562368849e-02  1.7276284663720554e-01  2.9175035145059121e+00  0.0000000000000000e+00  -1.4386664662718139e-06  -3.8535049923265354e-06  -5.4480912996943894e-06  -4.5721051096526021e-06  -2.2221184619101172e-06  -2.6188924587601739e-07  4.7689197555259153e-07  3.0649023682078244e-07  -4.7083887464622831e-08  -1.4032908526582623e-07  -1.8626528164527687e-08  6.7731614526367545e-08  2.3313578660101419e-08  -4.1783542073232938e-08  -2.1830277425237939e-08  3.5479546476445384e-08  1.4042389989253568e-08  -9.8280198785489248e-08  -2.3059110911298231e-07  -5.4701565755307562e-07  -2.5189149759394260e-06  -7.8881264654156946e-06  -2.1811466477507505e-05  -3.9931220517334469e-05  -1.9114209054438955e-04  2.7217502107963054e-04  -3.1329148134102850e-04  -1.8063756943361747e-02  7.9033411706099455e-02  2.3763248469620293e+00  0.0000000000000000e+00  -1.1074320560054983e-06  -2.7488164849495819e-06  -3.6098020358198805e-06  -2.7083133643751159e-06  -1.0372262519292140e-06  5.7215928725557707e-08  2.6929779091615590e-07  7.2146073053770647e-08  -6.2959564377622226e-08  -3.6265731803702407e-08  2.0121119176123402e-08  1.6972889535682880e-08  -1.0385926071370206e-08  -8.9474996477541669e-09  8.5222865884814575e-09  5.2321278545143832e-09  -8.8921147085419961e-09  7.2802688755708222e-09  6.5126210930503430e-08  1.4246215219710273e-07  9.3930517538339928e-07  1.5175797410175871e-06  1.0175857899709370e-05  1.9223543272667096e-05  2.9765319215102035e-05  8.1963497360805035e-05  1.4234877232847300e-03  -1.2850582015256847e-02  2.3480514668453616e-02  1.9141740558673277e+00  0.0000000000000000e+00  -8.2632511222620954e-07  -1.9078855699117133e-06  -2.3449758277250870e-06  -1.6016509662669952e-06  -4.9637990741027500e-07  9.4835334391591136e-08  1.3054237442940347e-07  6.8458650093743739e-09  -3.2103502762830190e-08  -3.8936103775466396e-09  1.0416401593344488e-08  4.0748677372995605e-10  -4.4641125950125466e-09  1.0415221779178844e-09  2.1838744361521702e-09  -1.8685680202752726e-09  -8.4716852177018089e-10  2.0574139610590849e-09  -1.5238183156548761e-08  -1.1187660902319214e-08  -4.4271549143369240e-07  5.0446498921261231e-07  -7.1070676065563784e-06  5.3159361973051598e-06  -4.2947465598200566e-05  -1.0561234621434650e-04  1.0525086623492774e-03  -7.4705453808982551e-03  -1.1207016920382732e-02  1.5229550689690510e+00  0.0000000000000000e+00  -5.9926528858625903e-07  -1.2939921025231394e-06  -1.5034303353568735e-06  -9.5776237579119501e-07  -2.5530126723462909e-07  6.8254686283910089e-08  6.1859690743599464e-08  -4.0430728574950292e-09  -1.3285431220158467e-08  1.2479041545040217e-09  3.3114152553697818e-09  -1.0435958440720843e-09  -7.8735759550434287e-10  7.5048330398774488e-10  -6.3150224119360181e-11  -3.9018891575266012e-10  5.8316470170506174e-10  -1.5125173787925285e-09  1.0051873530036254e-08  -4.0164950059301246e-08  2.9724293328794115e-07  -8.2763056404599075e-07  4.2921488570922415e-06  -8.6866342851716315e-06  4.8179505493176032e-05  -1.6143384671427928e-04  9.3802976222403850e-04  -3.0514630510158260e-03  -2.7999041264132548e-02  1.1950094395416209e+00  0.0000000000000000e+00  -4.2298321176732815e-07  -8.5959696429972197e-07  -9.5468865153235339e-07  -5.8328385748659521e-07  -1.4647708289351380e-07  3.8967822624064327e-08  3.1011788825077746e-08  -2.8049150243809127e-09  -5.4507133334843232e-09  8.3685249796200464e-10  9.5089940182888197e-10  -4.1464085239349895e-10  -9.6315816131220234e-11  2.4345133109112847e-10  -3.4888571900701355e-10  7.2266275813067124e-10  -1.9672643861267772e-09  6.8084079046455264e-09  -2.6981243875085646e-08  1.0381044608161467e-07  -3.8641656228983711e-07  1.1052324980985393e-06  -3.0842939130599171e-06  4.3197314633215488e-06  -3.7914965385014320e-06  -5.6689824455896605e-05  2.5648668729603838e-04  1.8068571869735546e-04  -3.5319058050547150e-02  9.2311634638663576e-01  0.0000000000000000e+00  -2.9064298656102115e-07  -5.5970377753864123e-07  -6.0106222601232204e-07  -3.6228902007011081e-07  -9.4308053212269454e-08  1.8514599207333514e-08  1.6938077263070957e-08  -5.6564596035754086e-10  -2.4187968448391931e-09  1.7172750551297852e-10  3.2733022788222969e-10  -9.0192706426078251e-11  -1.0059314474635410e-10  4.4851126009556104e-10  -1.5557719253333349e-09  4.8904864874495251e-09  -1.4055844221952365e-08  3.6174349115357529e-08  -8.0863525461065894e-08  1.5020977129509761e-07  -2.0785565980078454e-07  1.5917694158139854e-07  2.8172150375920157e-07  -9.6391732837500050e-07  3.8497581439410818e-06  8.9264339725344562e-07  -9.0322797092910075e-05  2.0497129982326077e-03  -3.5375796838120407e-02  7.0049259383286910e-01  0.0000000000000000e+00  -1.9424026681717142e-07  -3.5695741118729399e-07  -3.7474910767792566e-07  -2.2859628569456002e-07  -6.6244962883709940e-08  5.9562341713731260e-09  9.7410561103707048e-09  7.9003245101832320e-10  -1.0849803385986017e-09  -1.3411465437798690e-10  1.5417592718146421e-10  -5.5308773236127595e-11  -7.5763756700409563e-11  7.6410738566310313e-10  -3.2565756183069493e-09  1.0619998639300246e-08  -2.9998568300681103e-08  7.8371120429783928e-08  -1.9800812778601110e-07  4.9427430435790280e-07  -1.2167495290502288e-06  2.9133294016011286e-06  -6.7784416314769110e-06  1.5443850202117104e-05  -3.7304420658269212e-05  1.0409100708085607e-04  -4.3684738089470269e-04  2.9743548204524905e-03  -3.2020585509997472e-02  5.2079261173627078e-01  0.0000000000000000e+00  -1.2599869355783249e-07  -2.2251455006899191e-07  -2.3063997876304418e-07  -1.4532313688586782e-07  -4.8677499102940831e-08  -1.2546976288645672e-09  5.3907286036845350e-09  1.3178705322467830e-09  -3.6410750868092374e-10  -1.8113528720942890e-10  7.6359748520374352e-11  -1.3763851334496109e-10  1.7418868386468001e-10  2.9227512169004205e-10  -2.5498984561351130e-09  9.9510808018535366e-09  -3.0335227105748817e-08  8.0407611258593421e-08  -1.9338013121824193e-07  4.3607573239656161e-07  -9.6059732294365631e-07  2.1714404690810414e-06  -5.2414572788216363e-06  1.3785594305409702e-05  -3.9747842921666898e-05  1.3182250820833970e-04  -5.4042514912023404e-04  3.1016673151998881e-03  -2.6639057565444400e-02  3.7810845547996608e-01  0.0000000000000000e+00  -7.9063857026656084e-08  -1.3509188094034751e-07  -1.3940568603633660e-07  -9.2040874736265777e-08  -3.6038088748082138e-08  -4.9937402732669485e-09  2.4026690561151304e-09  1.2637755413057608e-09  5.2802515324667226e-11  -7.8453117059083515e-11  -1.8521304039511087e-11  -1.1880599613028970e-10  3.6530665817560318e-10  -6.6266514879813092e-10  4.1131443972990958e-10  2.6306950014895369e-09  -1.5226462245866032e-08  5.5983501692384130e-08  -1.7288567190991030e-07  4.8223062728181606e-07  -1.2528760281206054e-06  3.1030156034078118e-06  -7.5387821657761237e-06  1.8674976020394494e-05  -4.9621426994888921e-05  1.5012850443703958e-04  -5.5940561448067231e-04  2.8006639935849145e-03  -2.0840325869181272e-02  2.6696980597425657e-01  0.0000000000000000e+00  -4.7755987072131850e-08  -7.9456176712793680e-08  -8.2170128265791873e-08  -5.7321929953237699e-08  -2.6126190062754209e-08  -6.4221584582340168e-09  3.0338750493114013e-10  8.3724529434486635e-10  2.4657351545873297e-10  4.3520157413560187e-11  -9.2429078656657079e-11  6.5673784594060531e-11  9.0634418704385049e-11  -6.3127833620061827e-10  1.6932131562135675e-09  -2.8241892395193194e-09  1.6001510546485617e-09  9.6132936644879195e-09  -5.1953860014803679e-08  1.8340936909142586e-07  -5.6545460649326922e-07  1.6489490021094715e-06  -4.6998280190073526e-06  1.3412236808137476e-05  -3.9578211068768616e-05  1.2681276883873307e-04  -4.7234918485637337e-04  2.2447886321976048e-03  -1.5295222874460633e-02  1.8234396965661950e-01  0.0000000000000000e+00  -2.7572882569644580e-08  -4.4938136571765085e-08  -4.6797337859821924e-08  -3.4597953045294661e-08  -1.8139346089649546e-08  -6.3061042223146095e-09  -1.0245485572476342e-09  2.5836860578039667e-10  2.4046880099705510e-10  7.6906216029372068e-11  -4.0487488222081177e-11  1.5078945834120266e-10  -2.7517131266261249e-10  2.3488215470526676e-10  3.9751098544179934e-10  -2.1892091048219723e-09  4.8133977904713765e-09  -3.6580931302168134e-09  -1.8885435189105843e-08  1.1382734120721589e-07  -4.1504128444584430e-07  1.2718812834236910e-06  -3.6401754217652561e-06  1.0331560047694340e-05  -3.0426780695472759e-05  9.7260481576821173e-05  -3.5741877820034994e-04  1.6372509826947158e-03  -1.0539012165538287e-02  1.1963587849170806e-01  0.0000000000000000e+00  -1.5069202704224985e-08  -2.4187195514416399e-08  -2.5443788423716649e-08  -1.9912219803485415e-08  -1.1824823602295641e-08  -5.2507002898237567e-09  -1.6312955192739528e-09  -2.4915493688945048e-10  7.2971295592160931e-11  3.8320670354230251e-11  6.1964774571665169e-11  1.1029375448224598e-11  -1.5485444146296543e-10  4.7399288101050766e-10  -8.0506323912178893e-10  4.5404517293781346e-10  2.3801499229811212e-09  -1.0828065703229037e-08  2.7314760121440609e-08  -4.3745536618178367e-08  9.9047131007935255e-09  2.5770262072837275e-07  -1.3429150990012093e-06  5.0779004950145418e-06  -1.7546945040511180e-05  6.1274989443176259e-05  -2.3434223085983460e-04  1.0757515955220809e-03  -6.7468639594887346e-03  7.4688089971351360e-02  0.0000000000000000e+00  -7.6883513509901280e-09  -1.2209603118518083e-08  -1.2997420509641269e-08  -1.0721224480796982e-08  -7.0898716410178035e-09  -3.7866254545834673e-09  -1.6342312259224152e-09  -5.3482208353202397e-10  -1.3885183399046258e-10  -5.8186312656364025e-12  3.9237887314069602e-11  -7.5437091558211289e-11  1.2067496491465251e-10  -1.4090902627821366e-11  -4.1346533427027493e-10  1.3607440697018079e-09  -2.7904850325781205e-09  4.0816790057633197e-09  -3.8151952763059879e-09  1.4925438888048686e-09  -7.9276775721189706e-09  8.6491918614045509e-08  -4.9629499893064482e-07  2.1820333508006838e-06  -8.5586650836200776e-06  3.2823150742329508e-05  -1.3334782908219414e-04  6.2973268699983152e-04  -3.9563355595973529e-03  4.3780787114554284e-02  0.0000000000000000e+00  -3.5890727080845361e-09  -5.6598374871436737e-09  -6.1012310870640065e-09  -5.2714063266665644e-09  -3.8149804689509677e-09  -2.3496630250393499e-09  -1.2557184467383414e-09  -5.6761594279386514e-10  -2.5213884260017641e-10  -5.0965699431522178e-11  -6.3065750723832587e-11  5.0807678420110233e-12  6.8222705157722071e-11  -2.0471892487440685e-10  2.9998648528065542e-10  -1.9589464526409989e-10  -1.2187628965595784e-10  -1.0127664473027973e-10  3.4718408853853934e-09  -1.5627269401346460e-08  4.4417453617611839e-08  -8.8627669592589552e-08  8.4115590104589185e-08  3.1419801351881301e-07  -2.6045052587169410e-06  1.3189440557577270e-05  -6.1962027680751518e-05  3.1677347661741086e-04  -2.0691328351132537e-03  2.3631778467497856e-02  0.0000000000000000e+00  -1.4873658358219379e-09  -2.3339217230934983e-09  -2.5472616690234388e-09  -2.2887521950238831e-09  -1.7823608253494477e-09  -1.2244497338812839e-09  -7.6307266846156869e-10  -4.2021066602812595e-10  -2.3219068881913138e-10  -8.4793920517795676e-11  -9.2717709061721212e-11  5.0613500840675468e-11  -9.3965586851895281e-11  2.3040812904940778e-11  1.1981471521469665e-10  -2.1533238409206577e-10  -3.0337924698132322e-10  2.4896824633201808e-09  -7.4418894049572827e-09  1.4576510130508949e-08  -1.8271503173024353e-08  4.2220454580869777e-09  4.5127993554061072e-08  -9.2538596191689944e-08  -2.6198290716144493e-07  3.2978365440712884e-06  -2.1263023500820430e-05  1.2837230011524721e-04  -9.2253169999258384e-04  1.1396498103538703e-02  0.0000000000000000e+00  -5.2176138653917719e-10  -8.1374071149906425e-10  -8.9803183891129318e-10  -8.3335927365479079e-10  -6.8733163951687049e-10  -5.1291529859440081e-10  -3.589184067