<?xml version="1.0"?>
<VTKFile type="UnstructuredGrid"  version="0.1"  >
<UnstructuredGrid>
<Piece  NumberOfPoints="961" NumberOfCells="1800">
<Points>
<DataArray  type="Float64"  NumberOfComponents="3"  format="ascii">-1 -1 0  -0.9333333333333333 -1 0  -0.8666666666666667 -1 0  -0.8 -1 0  -0.7333333333333334 -1 0  -0.6666666666666667 -1 0  -0.6 -1 0  -0.5333333333333333 -1 0  -0.4666666666666667 -1 0  -0.4 -1 0  -0.3333333333333334 -1 0  -0.2666666666666667 -1 0  -0.2 -1 0  -0.1333333333333333 -1 0  -0.06666666666666665 -1 0  0 -1 0  0.06666666666666665 -1 0  0.1333333333333333 -1 0  0.2 -1 0  0.2666666666666666 -1 0  0.3333333333333333 -1 0  0.3999999999999999 -1 0  0.4666666666666666 -1 0  0.5333333333333334 -1 0  0.6000000000000001 -1 0  0.6666666666666667 -1 0  0.7333333333333334 -1 0  0.8 -1 0  0.8666666666666667 -1 0  0.9333333333333333 -1 0  1 -1 0  -1 -0.9333333333333333 0  -0.9333333333333333 -0.9333333333333333 0  -0.8666666666666667 -0.9333333333333333 0  -0.8 -0.9333333333333333 0  -0.7333333333333334 -0.9333333333333333 0  -0.6666666666666667 -0.9333333333333333 0  -0.6 -0.9333333333333333 0  -0.5333333333333333 -0.9333333333333333 0  -0.4666666666666667 -0.9333333333333333 0  -0.4 -0.9333333333333333 0  -0.3333333333333334 -0.9333333333333333 0  -0.2666666666666667 -0.9333333333333333 0  -0.2 -0.9333333333333333 0  -0.1333333333333333 -0.9333333333333333 0  -0.06666666666666665 -0.9333333333333333 0  0 -0.9333333333333333 0  0.06666666666666665 -0.9333333333333333 0  0.1333333333333333 -0.9333333333333333 0  0.2 -0.9333333333333333 0  0.2666666666666666 -0.9333333333333333 0  0.3333333333333333 -0.9333333333333333 0  0.3999999999999999 -0.9333333333333333 0  0.4666666666666666 -0.9333333333333333 0  0.5333333333333334 -0.9333333333333333 0  0.6000000000000001 -0.9333333333333333 0  0.6666666666666667 -0.9333333333333333 0  0.7333333333333334 -0.9333333333333333 0  0.8 -0.9333333333333333 0  0.8666666666666667 -0.9333333333333333 0  0.9333333333333333 -0.9333333333333333 0  1 -0.9333333333333333 0  -1 -0.8666666666666667 0  -0.9333333333333333 -0.8666666666666667 0  -0.8666666666666667 -0.8666666666666667 0  -0.8 -0.8666666666666667 0  -0.7333333333333334 -0.8666666666666667 0  -0.6666666666666667 -0.8666666666666667 0  -0.6 -0.8666666666666667 0  -0.5333333333333333 -0.8666666666666667 0  -0.4666666666666667 -0.8666666666666667 0  -0.4 -0.8666666666666667 0  -0.3333333333333334 -0.8666666666666667 0  -0.2666666666666667 -0.8666666666666667 0  -0.2 -0.8666666666666667 0  -0.1333333333333333 -0.8666666666666667 0  -0.06666666666666665 -0.8666666666666667 0  0 -0.8666666666666667 0  0.06666666666666665 -0.8666666666666667 0  0.1333333333333333 -0.8666666666666667 0  0.2 -0.8666666666666667 0  0.2666666666666666 -0.8666666666666667 0  0.3333333333333333 -0.8666666666666667 0  0.3999999999999999 -0.8666666666666667 0  0.4666666666666666 -0.8666666666666667 0  0.5333333333333334 -0.8666666666666667 0  0.6000000000000001 -0.8666666666666667 0  0.6666666666666667 -0.8666666666666667 0  0.7333333333333334 -0.8666666666666667 0  0.8 -0.8666666666666667 0  0.8666666666666667 -0.8666666666666667 0  0.9333333333333333 -0.8666666666666667 0  1 -0.8666666666666667 0  -1 -0.8 0  -0.9333333333333333 -0.8 0  -0.8666666666666667 -0.8 0  -0.8 -0.8 0  -0.7333333333333334 -0.8 0  -0.6666666666666667 -0.8 0  -0.6 -0.8 0  -0.5333333333333333 -0.8 0  -0.4666666666666667 -0.8 0  -0.4 -0.8 0  -0.3333333333333334 -0.8 0  -0.2666666666666667 -0.8 0  -0.2 -0.8 0  -0.1333333333333333 -0.8 0  -0.06666666666666665 -0.8 0  0 -0.8 0  0.06666666666666665 -0.8 0  0.1333333333333333 -0.8 0  0.2 -0.8 0  0.2666666666666666 -0.8 0  0.3333333333333333 -0.8 0  0.3999999999999999 -0.8 0  0.4666666666666666 -0.8 0  0.5333333333333334 -0.8 0  0.6000000000000001 -0.8 0  0.6666666666666667 -0.8 0  0.7333333333333334 -0.8 0  0.8 -0.8 0  0.8666666666666667 -0.8 0  0.9333333333333333 -0.8 0  1 -0.8 0  -1 -0.7333333333333334 0  -0.9333333333333333 -0.7333333333333334 0  -0.8666666666666667 -0.7333333333333334 0  -0.8 -0.7333333333333334 0  -0.7333333333333334 -0.7333333333333334 0  -0.6666666666666667 -0.7333333333333334 0  -0.6 -0.7333333333333334 0  -0.5333333333333333 -0.7333333333333334 0  -0.4666666666666667 -0.7333333333333334 0  -0.4 -0.7333333333333334 0  -0.3333333333333334 -0.7333333333333334 0  -0.2666666666666667 -0.7333333333333334 0  -0.2 -0.7333333333333334 0  -0.1333333333333333 -0.7333333333333334 0  -0.06666666666666665 -0.7333333333333334 0  0 -0.7333333333333334 0  0.06666666666666665 -0.7333333333333334 0  0.1333333333333333 -0.7333333333333334 0  0.2 -0.7333333333333334 0  0.2666666666666666 -0.7333333333333334 0  0.3333333333333333 -0.7333333333333334 0  0.3999999999999999 -0.7333333333333334 0  0.4666666666666666 -0.7333333333333334 0  0.5333333333333334 -0.7333333333333334 0  0.6000000000000001 -0.7333333333333334 0  0.6666666666666667 -0.7333333333333334 0  0.7333333333333334 -0.7333333333333334 0  0.8 -0.7333333333333334 0  0.8666666666666667 -0.7333333333333334 0  0.9333333333333333 -0.7333333333333334 0  1 -0.7333333333333334 0  -1 -0.6666666666666667 0  -0.9333333333333333 -0.6666666666666667 0  -0.8666666666666667 -0.6666666666666667 0  -0.8 -0.6666666666666667 0  -0.7333333333333334 -0.6666666666666667 0  -0.6666666666666667 -0.6666666666666667 0  -0.6 -0.6666666666666667 0  -0.5333333333333333 -0.6666666666666667 0  -0.4666666666666667 -0.6666666666666667 0  -0.4 -0.6666666666666667 0  -0.3333333333333334 -0.6666666666666667 0  -0.2666666666666667 -0.6666666666666667 0  -0.2 -0.6666666666666667 0  -0.1333333333333333 -0.6666666666666667 0  -0.06666666666666665 -0.6666666666666667 0  0 -0.6666666666666667 0  0.06666666666666665 -0.6666666666666667 0  0.1333333333333333 -0.6666666666666667 0  0.2 -0.6666666666666667 0  0.2666666666666666 -0.6666666666666667 0  0.3333333333333333 -0.6666666666666667 0  0.3999999999999999 -0.6666666666666667 0  0.4666666666666666 -0.6666666666666667 0  0.5333333333333334 -0.6666666666666667 0  0.6000000000000001 -0.6666666666666667 0  0.6666666666666667 -0.6666666666666667 0  0.7333333333333334 -0.6666666666666667 0  0.8 -0.6666666666666667 0  0.8666666666666667 -0.6666666666666667 0  0.9333333333333333 -0.6666666666666667 0  1 -0.6666666666666667 0  -1 -0.6 0  -0.9333333333333333 -0.6 0  -0.8666666666666667 -0.6 0  -0.8 -0.6 0  -0.7333333333333334 -0.6 0  -0.6666666666666667 -0.6 0  -0.6 -0.6 0  -0.5333333333333333 -0.6 0  -0.4666666666666667 -0.6 0  -0.4 -0.6 0  -0.3333333333333334 -0.6 0  -0.2666666666666667 -0.6 0  -0.2 -0.6 0  -0.1333333333333333 -0.6 0  -0.06666666666666665 -0.6 0  0 -0.6 0  0.06666666666666665 -0.6 0  0.1333333333333333 -0.6 0  0.2 -0.6 0  0.2666666666666666 -0.6 0  0.3333333333333333 -0.6 0  0.3999999999999999 -0.6 0  0.4666666666666666 -0.6 0  0.5333333333333334 -0.6 0  0.6000000000000001 -0.6 0  0.6666666666666667 -0.6 0  0.7333333333333334 -0.6 0  0.8 -0.6 0  0.8666666666666667 -0.6 0  0.9333333333333333 -0.6 0  1 -0.6 0  -1 -0.5333333333333333 0  -0.9333333333333333 -0.5333333333333333 0  -0.8666666666666667 -0.5333333333333333 0  -0.8 -0.5333333333333333 0  -0.7333333333333334 -0.5333333333333333 0  -0.6666666666666667 -0.5333333333333333 0  -0.6 -0.5333333333333333 0  -0.5333333333333333 -0.5333333333333333 0  -0.4666666666666667 -0.5333333333333333 0  -0.4 -0.5333333333333333 0  -0.3333333333333334 -0.5333333333333333 0  -0.2666666666666667 -0.5333333333333333 0  -0.2 -0.5333333333333333 0  -0.1333333333333333 -0.5333333333333333 0  -0.06666666666666665 -0.5333333333333333 0  0 -0.5333333333333333 0  0.06666666666666665 -0.5333333333333333 0  0.1333333333333333 -0.5333333333333333 0  0.2 -0.5333333333333333 0  0.2666666666666666 -0.5333333333333333 0  0.3333333333333333 -0.5333333333333333 0  0.3999999999999999 -0.5333333333333333 0  0.4666666666666666 -0.5333333333333333 0  0.5333333333333334 -0.5333333333333333 0  0.6000000000000001 -0.5333333333333333 0  0.6666666666666667 -0.5333333333333333 0  0.7333333333333334 -0.5333333333333333 0  0.8 -0.5333333333333333 0  0.8666666666666667 -0.5333333333333333 0  0.9333333333333333 -0.5333333333333333 0  1 -0.5333333333333333 0  -1 -0.4666666666666667 0  -0.9333333333333333 -0.4666666666666667 0  -0.8666666666666667 -0.4666666666666667 0  -0.8 -0.4666666666666667 0  -0.7333333333333334 -0.4666666666666667 0  -0.6666666666666667 -0.4666666666666667 0  -0.6 -0.4666666666666667 0  -0.5333333333333333 -0.4666666666666667 0  -0.4666666666666667 -0.4666666666666667 0  -0.4 -0.4666666666666667 0  -0.3333333333333334 -0.4666666666666667 0  -0.2666666666666667 -0.4666666666666667 0  -0.2 -0.4666666666666667 0  -0.1333333333333333 -0.4666666666666667 0  -0.06666666666666665 -0.4666666666666667 0  0 -0.4666666666666667 0  0.06666666666666665 -0.4666666666666667 0  0.1333333333333333 -0.4666666666666667 0  0.2 -0.4666666666666667 0  0.2666666666666666 -0.4666666666666667 0  0.3333333333333333 -0.4666666666666667 0  0.3999999999999999 -0.4666666666666667 0  0.4666666666666666 -0.4666666666666667 0  0.5333333333333334 -0.4666666666666667 0  0.6000000000000001 -0.4666666666666667 0  0.6666666666666667 -0.4666666666666667 0  0.7333333333333334 -0.4666666666666667 0  0.8 -0.4666666666666667 0  0.8666666666666667 -0.4666666666666667 0  0.9333333333333333 -0.4666666666666667 0  1 -0.4666666666666667 0  -1 -0.4 0  -0.9333333333333333 -0.4 0  -0.8666666666666667 -0.4 0  -0.8 -0.4 0  -0.7333333333333334 -0.4 0  -0.6666666666666667 -0.4 0  -0.6 -0.4 0  -0.5333333333333333 -0.4 0  -0.4666666666666667 -0.4 0  -0.4 -0.4 0  -0.3333333333333334 -0.4 0  -0.2666666666666667 -0.4 0  -0.2 -0.4 0  -0.1333333333333333 -0.4 0  -0.06666666666666665 -0.4 0  0 -0.4 0  0.06666666666666665 -0.4 0  0.1333333333333333 -0.4 0  0.2 -0.4 0  0.2666666666666666 -0.4 0  0.3333333333333333 -0.4 0  0.3999999999999999 -0.4 0  0.4666666666666666 -0.4 0  0.5333333333333334 -0.4 0  0.6000000000000001 -0.4 0  0.6666666666666667 -0.4 0  0.7333333333333334 -0.4 0 
[...]
<PointData  Scalars="f_24"> 
<DataArray  type="Float64"  Name="f_24"  format="ascii">0.0000000000000000e+00  0.0000000000000000e+00  0.0000000000000000e+00  0.0000000000000000e+00  0.0000000000000000e+00  0.0000000000000000e+00  0.0000000000000000e+00  0.0000000000000000e+00  0.0000000000000000e+00  0.0000000000000000e+00  0.0000000000000000e+00  0.0000000000000000e+00  0.0000000000000000e+00  0.0000000000000000e+00  0.0000000000000000e+00  0.0000000000000000e+00  0.0000000000000000e+00  0.0000000000000000e+00  0.0000000000000000e+00  0.0000000000000000e+00  0.0000000000000000e+00  0.0000000000000000e+00  0.0000000000000000e+00  0.0000000000000000e+00  0.0000000000000000e+00  0.0000000000000000e+00  0.0000000000000000e+00  0.0000000000000000e+00  0.0000000000000000e+00  0.0000000000000000e+00  1.3498637065542137e+01  0.0000000000000000e+00  1.6643316321783515e-02  5.3941437745999667e-02  1.0405878792758458e-01  1.5970071302856489e-01  2.1719781188370479e-01  2.7483422151440945e-01  3.3194990352038239e-01  3.8851814119665157e-01  4.4491953981578308e-01  5.0182446619161913e-01  5.6013734650836822e-01  6.2098008832926177e-01  6.8570626870798546e-01  7.5594407452061430e-01  8.3367063745630743e-01  9.2132500810479367e-01  1.0219723495703064e+00  1.1395394500566338e+00  1.2791528674629875e+00  1.4476283661734271e+00  1.6541882183380989e+00  1.9115298638573299e+00  2.2374522465304461e+00  2.6574028195162511e+00  3.2086244779118935e+00  3.9472681529891376e+00  4.9616072210558322e+00  6.3984919198797661e+00  8.5278310422579402e+00  1.1786826570807047e+01  0.0000000000000000e+00  3.0734704100783040e-02  9.6118996907463755e-02  1.7797582653100300e-01  2.5798246964347010e-01  3.2712037770514352e-01  3.8160469625559934e-01  4.2082791985589052e-01  4.4596920503562504e-01  4.5906767932195947e-01  4.6244879710097581e-01  4.5838792254222233e-01  4.4894134980070433e-01  4.3588994465207048e-01  4.2075491414908928e-01  4.0486119158860684e-01  3.8943742639000378e-01  3.7575507401334385e-01  3.6532472357341705e-01  3.6018908217876983e-01  3.6338582924543178e-01  3.7971146254811816e-01  4.1702027284290449e-01  4.8848219710743962e-01  6.1658456101360160e-01  8.4039986594677218e-01  1.2293061226931596e+00  1.9103377128620989e+00  3.1299867829240333e+00  5.4104967567548368e+00  1.0243232424886257e+01  0.0000000000000000e+00  4.1418059774210994e-02  1.2283019847612602e-01  2.1339191453886777e-01  2.8368250046379334e-01  3.2321339809544114e-01  3.3221278380868968e-01  3.1665045095678107e-01  2.8432807808491856e-01  2.4261975435648772e-01  1.9743622365373770e-01  1.5297019201168041e-01  1.1186915919982841e-01  7.5573937121380233e-02  4.4675039467413594e-02  1.9218916189624510e-02  -1.0556050827084783e-03  -1.6542942605778033e-02  -2.7636511841686716e-02  -3.4600626045439613e-02  -3.7392740831230564e-02  -3.5330323715352281e-02  -2.6382661950700367e-02  -5.6182896523244040e-03  3.8201415371434164e-02  1.3005196983116102e-01  3.2484052051162060e-01  7.4382885370293428e-01  1.6594273583076209e+00  3.7390410383187316e+00  8.8564557787021965e+00  0.0000000000000000e+00  4.8433322307915284e-02  1.3464413251612703e-01  2.1603821807900975e-01  2.5750598611023834e-01  2.5537218468654677e-01  2.2117528968625355e-01  1.7101005737341235e-01  1.1848051383406706e-01  7.2299660088036372e-02  3.6496221952823253e-02  1.1735681107296963e-02  -3.2380534641586389e-03  -1.0491443787400197e-02  -1.2202685816596876e-02  -1.0303424840317552e-02  -6.3470297687235194e-03  -1.5048469835816569e-03  3.3765674955126084e-03  7.6970630037993112e-03  1.1027044778131354e-02  1.3061711985329537e-02  1.3683825441918868e-02  1.3396405785720539e-02  1.4915023642966490e-02  2.8127852124789514e-02  8.4243821214619749e-02  2.7359873883527874e-01  8.4996218989250416e-01  2.5206869648960466e+00  7.6154977427940551e+00  0.0000000000000000e+00  5.1983089328039862e-02  1.3456067790996126e-01  1.9743441897760963e-01  2.0743906624260150e-01  1.7393085969971159e-01  1.2061366372608315e-01  6.8726721088319842e-02  2.9688787094018551e-02  6.0569383251978552e-03  -4.8256723283186254e-03  -7.3732334277664706e-03  -5.6644757622834130e-03  -2.6150031464611881e-03  7.8703646278901308e-05  1.6629118738171831e-03  1.9900656023698338e-03  1.2408853047489741e-03  -2.6615075573399827e-04  -2.1901565083796491e-03  -4.2349102150997563e-03  -6.2001032324851589e-03  -8.0522685838834082e-03  -1.0023169747282092e-02  -1.2488248362324601e-02  -1.4272371347489933e-02  -4.2007463802030557e-03  7.1321873827928928e-02  4.1249903421081235e-01  1.7198263950753292e+00  6.5097593873177759e+00  0.0000000000000000e+00  5.2576547028343371e-02  1.2636953769687406e-01  1.6871875666340264e-01  1.5437539259661309e-01  1.0636916301792007e-01  5.5052758745164049e-02  1.8585438367356082e-02  1.5528068546811366e-04  -5.2320861715518547e-03  -4.2072325075284429e-03  -1.5658695915687036e-03  3.6673143899373174e-04  1.0482513551644296e-03  8.1182797252680268e-04  2.1636423051568405e-04  -2.7856741639417968e-04  -4.1193370802997760e-04  -1.0495158654340286e-04  5.9536815400011147e-04  1.5744293390760548e-03  2.6942460940647286e-03  3.8051883290013242e-03  4.6653041673371323e-03  4.6124348303729894e-03  2.1663392029995900e-03  -2.4973795050861648e-03  1.2586089123134173e-02  1.8810124464207018e-01  1.1460331845408320e+00  5.5290417420460605e+00  0.0000000000000000e+00  5.0870574220508065e-02  1.1356414296544927e-01  1.3788412292265134e-01  1.0906675077954144e-01  5.9959417785157891e-02  2.0498828932308980e-02  7.5173825662585051e-04  -4.1702387333608223e-03  -2.6699052062020439e-03  -4.1512186533705333e-04  6.1210767936071349e-04  5.5512462871899781e-04  1.2595742295284728e-04  -1.7660601875912996e-04  -2.1419009793154320e-04  -8.1251517737658964e-05  5.4227745641791002e-05  5.2846527298254372e-05  -1.5676972221817257e-04  -5.7773895716816878e-04  -1.1595542809310793e-03  -1.8049532003692487e-03  -2.3720699809251342e-03  -2.7789373743047365e-03  -3.7632503068907733e-03  -8.1193643730599358e-03  -1.2644885649058737e-02  6.3852027848757417e-02  7.4872459625136312e-01  4.6635457963683660e+00  0.0000000000000000e+00  4.7539913530903172e-02  9.8842294846211667e-02  1.0949010659730883e-01  7.4718592651721580e-02  3.1745407945201851e-02  5.2659573015339106e-03  -3.0478667739446408e-03  -2.3977496273616121e-03  -3.2635635263869876e-04  4.8259781789587443e-04  3.0970048322022744e-04  -2.0908942475695679e-05  -1.3004636809110920e-04  -5.8083811645992663e-05  3.6432458231186956e-05  6.2724806721390174e-05  2.9142315140566610e-05  2.9916776285481716e-07  4.6147046457544236e-05  2.1047136020569264e-04  4.9993544977699914e-04  8.8463808601807698e-04  1.3348233429120763e-03  1.8862645688999503e-03  2.5180583314134359e-03  1.1474892481936850e-03  -7.5514757307716725e-03  1.2859335885616196e-02  4.7541265546155997e-01  3.9038724992909137e+00  0.0000000000000000e+00  4.3192142951592474e-02  8.4022831900055814e-02  8.5485312625205978e-02  5.0544470178265535e-02  1.6039547572957030e-02  -2.4219783398973856e-04  -2.5613244610848142e-03  -7.3309974895937485e-04  3.2848020359639487e-04  2.6011435710972296e-04  -1.8682351312826149e-05  -8.6062067157668617e-05  -1.8386731553161781e-05  2.9389703057722167e-05  1.8277964650667381e-05  -1.1589832538842965e-05  -2.2429611867050846e-05  -1.4783299408647600e-05  -1.9945943513524156e-05  -7.6413851191816225e-05  -2.1115325537115196e-04  -4.2977972446912009e-04  -7.3661992421212327e-04  -1.0623228346253928e-03  -1.1652192632687691e-03  -1.2750145466127114e-03  -7.7546017928888595e-03  -1.3789802135014720e-02  2.8229298624896382e-01  3.2410227594366665e+00  0.0000000000000000e+00  3.8325579583763120e-02  7.0177448770769021e-02  6.6217348442163870e-02  3.4326911144305403e-02  7.8760230510121799e-03  -1.6492418479871558e-03  -1.4832404517520267e-03  -8.6500304523950902e-06  2.8086223807914233e-04  3.6322938523355781e-05  -6.5176292987754596e-05  -1.7740771723476172e-05  1.9439062692165981e-05  8.8732306716695787e-06  -7.2506949486648461e-06  -5.0742114336853334e-06  5.5739126674073691e-06  1.0375365706934506e-05  1.1761405290811416e-05  2.8650729615951252e-05  8.5911078158142635e-05  1.9943013611586232e-04  3.8204179209944139e-04  5.6182332672979072e-04  8.8586219631866972e-04  1.6109305823213957e-03  -7.5410113493049426e-04  -1.7061778149416059e-02  1.5869248726195503e-01  2.6663974450453618e+00  0.0000000000000000e+00  3.3319070671612154e-02  5.7831287847611407e-02  5.1230282679359071e-02  2.3765682359495638e-02  3.8755742557883967e-03  -1.6394318236307606e-03  -7.4011037782103931e-04  1.7318662733205466e-04  1.3731044760127318e-04  -3.3950369231334240e-05  -3.0497250944554554e-05  9.7486928612438919e-06  8.7170161245831578e-06  -3.9565527909815278e-06  -3.1619795639988141e-06  1.9930811604688724e-06  1.0549100307452120e-06  -3.4187161438665153e-06  -6.4301249537595826e-06  -1.1659044817733503e-05  -3.3912795453092131e-05  -8.5729345082876640e-05  -1.8891795481275824e-04  -3.1301529767121703e-04  -6.0760283427868092e-04  -2.7970920344480674e-04  -9.5278361388218306e-04  -1.6991953171986127e-02  7.1531880677237522e-02  2.1717973839734772e+00  0.0000000000000000e+00  2.8441056497291336e-02  4.7152726058863580e-02  3.9771944473020508e-02  1.6993890299958722e-02  2.0320612035203537e-03  -1.2887319362197118e-03  -3.5756227878505696e-04  1.6392004447078853e-04  5.2228288456647141e-05  -3.4341498496561035e-05  -6.6994179131954391e-06  9.0511617329548301e-06  2.1747994421623668e-07  -2.8762562375380136e-06  6.6268598959457925e-07  1.0216256538608386e-06  -5.4913519087185136e-07  1.3843150072274054e-07  2.4654455281755765e-06  4.9109477928102738e-06  1.3566524762202594e-05  3.2722711272580286e-05  9.3174719153668107e-05  1.5967874171396771e-04  3.0275484007969176e-04  3.9269439234430517e-04  1.8584923595176643e-03  -1.1345963880489824e-02  2.2347178704158394e-02  1.7494233636942609e+00  0.0000000000000000e+00  2.3867688063411246e-02  3.8101530144330355e-02  3.1066826195578195e-02  1.2664367262646596e-02  1.2569533126259827e-03  -9.4617568439923016e-04  -1.9337107597030054e-04  1.1779486097619418e-04  1.9095516384878064e-05  -2.1911348878103060e-05  4.5641435742225992e-07  4.4338644040904750e-06  -1.2901115746854114e-06  -7.7678590435740124e-07  6.9848897436142969e-07  -5.1218627393661468e-08  -2.9069236297241257e-07  9.7974892109373269e-08  -5.2625186858115178e-07  -1.6882186586377295e-06  -5.9115685300244363e-06  -9.9260360089978866e-06  -4.7679105941059489e-05  -5.7254583805497568e-05  -2.1306383102622637e-04  -2.6495962558863769e-04  5.3045627159129015e-04  -7.0176289552601172e-03  -1.0956856524582750e-02  1.3918761312977097e+00  0.0000000000000000e+00  1.9703235619982103e-02  3.0531581931838858e-02  2.4437073070719326e-02  9.8675572441644724e-03  9.9611709285112645e-04  -6.8304619025237134e-04  -1.3632803650450765e-04  7.8221974054987502e-05  1.0814373602366995e-05  -1.2737891392994896e-05  7.7381730764565912e-07  1.9969287248625738e-06  -7.3356302496215475e-07  -1.3909953589732815e-07  2.2931139963185074e-07  -9.9041782681391841e-08  1.3248607170170736e-09  5.7486928455621677e-08  1.3302164647451445e-07  2.0193468785245149e-07  3.0415066178816243e-06  8.6934656994798724e-07  2.5667942882533308e-05  1.0049451046418346e-05  1.5479421481736730e-04  -7.9836076325315574e-05  1.1828430759769997e-03  -2.6796041796863413e-03  -2.4940831284249943e-02  1.0921563934905796e+00  0.0000000000000000e+00  1.5999036941524540e-02  2.4255789832020327e-02  1.9338942055091589e-02  8.0124042870679812e-03  9.7905085817483846e-04  -4.8458072748046831e-04  -1.2529781214668697e-04  4.8755868914810001e-05  1.1240602863599686e-05  -7.1882331479656279e-06  -3.5957950919575425e-07  1.0048207713004667e-06  -1.8502886990388208e-07  -5.7397165164852799e-08  4.3088089530186523e-08  -2.1117871659355264e-08  6.6952234322656032e-09  1.2826759553020096e-08  -1.3038401765203719e-07  3.5462156211106268e-07  -2.1616153802016973e-06  2.9454604986812738e-06  -1.6568471888568885e-05  7.7637436553647455e-06  -7.6124402157420678e-05  -6.0548512031092673e-05  -1.0602692992758813e-06  1.3854283799808855e-04  -3.2757961437202353e-02  8.4366481659638359e-01  0.0000000000000000e+00  1.2769345379428745e-02  1.9083528626560150e-02  1.5358780108310139e-02  6.7222503415459737e-03  1.0746619981693343e-03  -3.1960486157957431e-04  -1.2982450601519121e-04  2.4073642060076355e-05  1.3145214484499709e-05  -3.0722845265353627e-06  -1.2192677620147304e-06  3.8331881634126901e-07  7.0173254595991914e-08  -1.9054996653507246e-08  1.0511231521223585e-09  3.1116436411324875e-09  -1.0436291167666513e-08  1.3779902661910484e-08  3.9887547425191274e-08  -2.9331407790974990e-07  1.3856048770429953e-06  -3.1773233812148085e-06  1.0836461372444092e-05  -1.3592572765940826e-05  5.3292633014965983e-05  -1.9746854917823814e-05  8.0725736321408655e-05  1.8667458966763466e-03  -3.1961303472742536e-02  6.4020202655539105e-01  0.0000000000000000e+00  1.0003704158731480e-02  1.4839838459043814e-02  1.2193466430326256e-02  5.7588759576350729e-03  1.2148887520449540e-03  -1.6178403859314387e-04  -1.3264000844316867e-04  -6.1291564839446666e-08  1.2816572947650617e-05  7.2465842808311976e-07  -1.1938387973279736e-06  -1.5628685754377333e-07  5.8764756021858207e-08  1.4593762701368048e-08  -9.8390577443896709e-10  1.0013708819506832e-08  -3.0168480672086296e-08  9.7234212911841606e-08  -3.1614835769372782e-07  9.6015063936208702e-07  -2.6679971799421926e-06  6.3803375266008764e-06  -1.5183673579559510e-05  2.8805964370520492e-05  -6.9440251307493789e-05  1.2548824264004184e-04  -5.0846253126475051e-04  2.7460031139353094e-03  -2.9513152948154285e-02  4.7596860892462844e-01  0.0000000000000000e+00  7.6761229370520302e-03  1.1373351392025936e-02  9.6277114282857391e-03  4.9724672137337186e-03  1.3569819159292250e-03  4.5905668842036744e-06  -1.2038916091838792e-04  -2.3734279733127849e-05  7.6869497146293478e-06  3.5814612772778979e-06  -8.8070767374388864e-08  -3.2676966369954175e-07  -8.1557789026599717e-08  -1.2065457379448803e-08  -5.8095958499000822e-09  7.3366574524237482e-09  -2.3645628844307860e-08  3.9604405675590860e-08  -1.6533846891858535e-08  -1.5330310653330356e-07  6.6652361611852183e-07  -1.6402814605063602e-06  2.9071974048591915e-06  -8.1815806448433924e-07  -1.0862237367224233e-05  9.1215977119697938e-05  -4.2379909457533849e-04  2.8041030574244255e-03  -2.4177972506343050e-02  3.4556510887787878e-01  0.0000000000000000e+00  5.7515928967595935e-03  8.5577179844631892e-03  7.5133855194750221e-03  4.2710368793566298e-03  1.4669596493712236e-03  1.8224498938904365e-04  -8.1440955131510198e-05  -4.1503315336065554e-05  -2.9562544325211343e-06  3.4492563436238007e-06  1.3461129782684169e-06  1.5095461806764631e-07  -4.2963864541912168e-08  -2.6680964559874035e-08  -7.8416846686846597e-09  1.7470870640797625e-09  -1.8778454672550063e-08  9.5795798301613148e-08  -3.3483246227867858e-07  1.0052044568941233e-06  -2.6133958538803882e-06  6.0734616521752441e-06  -1.3239768361030737e-05  2.7919768409176503e-05  -6.3458686067249128e-05  1.6061068692087087e-04  -5.5471665494077286e-04  2.5872762278167081e-03  -1.9147237136923193e-02  2.4399203120568211e-01  0.0000000000000000e+00  4.1905265182869298e-03  6.2895839528546958e-03  5.7523410468764162e-03  3.6028155124315478e-03  1.5150130391647339e-03  3.5954262643740219e-04  -9.1625226517629853e-06  -4.2937548067260065e-05  -1.5438497780604832e-05  -1.2769925450394939e-06  1.1684134578994483e-06  6.8932946006073750e-07  2.5080728697205301e-07  8.6976081677922369e-08  3.8383429708941419e-08  1.5799326915360388e-08  2.0739377385812929e-08  -3.8124862882514848e-08  1.4086711641737751e-07  -3.8685668202346445e-07  7.9072045331481142e-07  -1.2182279149755802e-06  6.4586665758409295e-07  4.1547961780193953e-06  -2.3762710746035923e-05  9.9336887744802378e-05  -4.0588488223246473e-04  2.0309656747257748e-03  -1.3919795063737172e-02  1.6664984031533511e-01  0.0000000000000000e+00  2.9516448930809549e-03  4.4849652560771478e-03  4.2825318060580771e-03  2.9462597534664144e-03  1.4780192896189375e-03  5.1177049347238908e-04  9.1751390654598307e-05  -1.7325955598114620e-05  -2.0322472259319913e-05  -8.3047627871086696e-06  -1.9765618900933865e-06  -1.4046034563170421e-07  1.3732242637484961e-07  1.0097777970617777e-07  4.7786411554172693e-08  1.4482881758166242e-08  -1.0744071509476502e-08  4.1250472253076094e-08  -2.2706787361340524e-07  5.8709525213372511e-07  -1.5151118458598653e-06  3.2773008629300721e-06  -6.9831938596293601e-06  1.5049467576967485e-05  -3.5889605418837202e-05  9.9489388519430463e-05  -3.4127996794244787e-04  1.5099396047812492e-03  -9.6620346871423742e-03  1.0933896023089137e-01  0.0000000000000000e+00  1.9937609147409724e-03  3.0750848041883392e-03  3.0666938871587129e-03  2.3035214869203211e-03  1.3457303756232075e-03  6.0768279668106033e-04  2.0065277751013446e-04  3.7154778827777969e-05  -6.4511191617774487e-06  -9.6876295886667966e-06  -5.5133097552594675e-06  -2.4418002358563289e-06  -1.0129581214230670e-06  -4.4595310646522764e-07  -2.3251732411571259e-07  -1.4510236506699247e-07  -8.4834570506699973e-08  -1.5043038722653971e-07  1.4425177844170452e-07  -5.2967057082120793e-07  8.5686173461605352e-07  -1.3798387466916298e-06  1.2624784197963280e-06  9.7298951137641404e-07  -1.1124926552016276e-05  4.9790929211944832e-05  -2.0638885285086247e-04  9.7533029686495693e-04  -6.1514540932487670e-03  6.8259774593161279e-02  0.0000000000000000e+00  1.2767743057627095e-03  2.0022626724773610e-03  2.0828586948472318e-03  1.6943521520006236e-03  1.1269260560219081e-03  6.2180446402403035e-04  2.8431723443674494e-04  1.0524254368982715e-04  2.8763700437803819e-05  3.1453601829341899e-06  -2.7158951229203466e-06  -2.7712381297497486e-06  -1.8429244942544435e-06  -1.0963640254463972e-06  -6.4793524204928346e-07  -3.8664413418434887e-07  -2.6899785578906391e-07  -9.7919165982146886e-08  -2.8234641929905485e-07  2.7914654887383834e-07  -7.3848422829496585e-07  1.1377553590013564e-06  -2.1180148591514068e-06  4.1835665902510930e-06  -1.0622762317617728e-05  3.3301112228249912e-05  -1.2570057546445502e-04  5.7946928354834072e-04  -3.6218027465349627e-03  4.0012626659711906e-02  0.0000000000000000e+00  7.6218698682700269e-04  1.2161814551340444e-03  1.3162539464283919e-03  1.1486484524012716e-03  8.5139269376980297e-04  5.4852734661991673e-04  3.1133414731787944e-04  1.5712435753360696e-04  7.0943529416795303e-05  2.8709056415028034e-05  1.0303970906381527e-05  3.1426825747440190e-06  6.5594903562395956e-07  -6.8497075221165545e-08  -2.2016109269203203e-07  -2.0643278488829734e-07  -1.3880948818004152e-07  -1.7756753839300067e-07  5.3355037487971273e-08  -3.6447166695540577e-07  4.6122262306425352e-07  -8.5087927535700869e-07  1.0359547908625447e-06  -9.8222962311251169e-07  -9.3926990232598299e-07  1.0445635843581550e-05  -5.4931066475256228e-05  2.8780756477194813e-04  -1.8887599015064674e-03  2.1597819304867399e-02  0.0000000000000000e+00  4.1324088663817422e-04  6.7069398567864936e-04  7.5245457983383790e-04  6.9727734586165794e-04  5.6454543532875163e-04  4.0996313727223666e-04  2.7141318699685189e-04  1.6596220288199242e-04  9.4884258798069924e-05  5.1381385578550243e-05  2.6704720534830593e-05  1.3523440667803408e-05  6.7479516978686967e-06  3.3679754582402167e-06  1.6738329417039036e-06  8.4329657369066463e-07  3.8120832432278146e-07  2.3830014378076479e-07  -5.7952190246705806e-08  2.2293759703526320e-07  -3.6101650984330979e-07  4.2145385842427560e-07  -5.5194480293274205e-07  5.4454216365100622e-07  -9.4664974339248054e-07  3.7007346824499166e-06  -2.0098784924919996e-05  1.1793256797038541e-04  -8.4377399154863457e-04  1.0415615019708431e-02  0.0000000000000000e+00  1.9500559347933164e-04  3.2135563841006651e-04  3.7202609258078719e-04  3.6232898803933452e-04  3.1461491767251399e-04  2.5020975924072659e-04  1.8516527995188280e-04  1.2896819956522977e-04  8.5344558664013828e-05  5.4133288213639280e-05  3.3171550338512702e-05  1.9797175109776