<?xml version="1.0"?>
<VTKFile type="UnstructuredGrid"  version="0.1"  >
<UnstructuredGrid>
<Piece  NumberOfPoints="961" NumberOfCells="1800">
<Points>
<DataArray  type="Float64"  NumberOfComponents="3"  format="ascii">-1 -1 0  -0.9333333333333333 -1 0  -0.8666666666666667 -1 0  -0.8 -1 0  -0.7333333333333334 -1 0  -0.6666666666666667 -1 0  -0.6 -1 0  -0.5333333333333333 -1 0  -0.4666666666666667 -1 0  -0.4 -1 0  -0.3333333333333334 -1 0  -0.2666666666666667 -1 0  -0.2 -1 0  -0.1333333333333333 -1 0  -0.06666666666666665 -1 0  0 -1 0  0.06666666666666665 -1 0  0.1333333333333333 -1 0  0.2 -1 0  0.2666666666666666 -1 0  0.3333333333333333 -1 0  0.3999999999999999 -1 0  0.4666666666666666 -1 0  0.5333333333333334 -1 0  0.6000000000000001 -1 0  0.6666666666666667 -1 0  0.7333333333333334 -1 0  0.8 -1 0  0.8666666666666667 -1 0  0.9333333333333333 -1 0  1 -1 0  -1 -0.9333333333333333 0  -0.9333333333333333 -0.9333333333333333 0  -0.8666666666666667 -0.9333333333333333 0  -0.8 -0.9333333333333333 0  -0.7333333333333334 -0.9333333333333333 0  -0.6666666666666667 -0.9333333333333333 0  -0.6 -0.9333333333333333 0  -0.5333333333333333 -0.9333333333333333 0  -0.4666666666666667 -0.9333333333333333 0  -0.4 -0.9333333333333333 0  -0.3333333333333334 -0.9333333333333333 0  -0.2666666666666667 -0.9333333333333333 0  -0.2 -0.9333333333333333 0  -0.1333333333333333 -0.9333333333333333 0  -0.06666666666666665 -0.9333333333333333 0  0 -0.9333333333333333 0  0.06666666666666665 -0.9333333333333333 0  0.1333333333333333 -0.9333333333333333 0  0.2 -0.9333333333333333 0  0.2666666666666666 -0.9333333333333333 0  0.3333333333333333 -0.9333333333333333 0  0.3999999999999999 -0.9333333333333333 0  0.4666666666666666 -0.9333333333333333 0  0.5333333333333334 -0.9333333333333333 0  0.6000000000000001 -0.9333333333333333 0  0.6666666666666667 -0.9333333333333333 0  0.7333333333333334 -0.9333333333333333 0  0.8 -0.9333333333333333 0  0.8666666666666667 -0.9333333333333333 0  0.9333333333333333 -0.9333333333333333 0  1 -0.9333333333333333 0  -1 -0.8666666666666667 0  -0.9333333333333333 -0.8666666666666667 0  -0.8666666666666667 -0.8666666666666667 0  -0.8 -0.8666666666666667 0  -0.7333333333333334 -0.8666666666666667 0  -0.6666666666666667 -0.8666666666666667 0  -0.6 -0.8666666666666667 0  -0.5333333333333333 -0.8666666666666667 0  -0.4666666666666667 -0.8666666666666667 0  -0.4 -0.8666666666666667 0  -0.3333333333333334 -0.8666666666666667 0  -0.2666666666666667 -0.8666666666666667 0  -0.2 -0.8666666666666667 0  -0.1333333333333333 -0.8666666666666667 0  -0.06666666666666665 -0.8666666666666667 0  0 -0.8666666666666667 0  0.06666666666666665 -0.8666666666666667 0  0.1333333333333333 -0.8666666666666667 0  0.2 -0.8666666666666667 0  0.2666666666666666 -0.8666666666666667 0  0.3333333333333333 -0.8666666666666667 0  0.3999999999999999 -0.8666666666666667 0  0.4666666666666666 -0.8666666666666667 0  0.5333333333333334 -0.8666666666666667 0  0.6000000000000001 -0.8666666666666667 0  0.6666666666666667 -0.8666666666666667 0  0.7333333333333334 -0.8666666666666667 0  0.8 -0.8666666666666667 0  0.8666666666666667 -0.8666666666666667 0  0.9333333333333333 -0.8666666666666667 0  1 -0.8666666666666667 0  -1 -0.8 0  -0.9333333333333333 -0.8 0  -0.8666666666666667 -0.8 0  -0.8 -0.8 0  -0.7333333333333334 -0.8 0  -0.6666666666666667 -0.8 0  -0.6 -0.8 0  -0.5333333333333333 -0.8 0  -0.4666666666666667 -0.8 0  -0.4 -0.8 0  -0.3333333333333334 -0.8 0  -0.2666666666666667 -0.8 0  -0.2 -0.8 0  -0.1333333333333333 -0.8 0  -0.06666666666666665 -0.8 0  0 -0.8 0  0.06666666666666665 -0.8 0  0.1333333333333333 -0.8 0  0.2 -0.8 0  0.2666666666666666 -0.8 0  0.3333333333333333 -0.8 0  0.3999999999999999 -0.8 0  0.4666666666666666 -0.8 0  0.5333333333333334 -0.8 0  0.6000000000000001 -0.8 0  0.6666666666666667 -0.8 0  0.7333333333333334 -0.8 0  0.8 -0.8 0  0.8666666666666667 -0.8 0  0.9333333333333333 -0.8 0  1 -0.8 0  -1 -0.7333333333333334 0  -0.9333333333333333 -0.7333333333333334 0  -0.8666666666666667 -0.7333333333333334 0  -0.8 -0.7333333333333334 0  -0.7333333333333334 -0.7333333333333334 0  -0.6666666666666667 -0.7333333333333334 0  -0.6 -0.7333333333333334 0  -0.5333333333333333 -0.7333333333333334 0  -0.4666666666666667 -0.7333333333333334 0  -0.4 -0.7333333333333334 0  -0.3333333333333334 -0.7333333333333334 0  -0.2666666666666667 -0.7333333333333334 0  -0.2 -0.7333333333333334 0  -0.1333333333333333 -0.7333333333333334 0  -0.06666666666666665 -0.7333333333333334 0  0 -0.7333333333333334 0  0.06666666666666665 -0.7333333333333334 0  0.1333333333333333 -0.7333333333333334 0  0.2 -0.7333333333333334 0  0.2666666666666666 -0.7333333333333334 0  0.3333333333333333 -0.7333333333333334 0  0.3999999999999999 -0.7333333333333334 0  0.4666666666666666 -0.7333333333333334 0  0.5333333333333334 -0.7333333333333334 0  0.6000000000000001 -0.7333333333333334 0  0.6666666666666667 -0.7333333333333334 0  0.7333333333333334 -0.7333333333333334 0  0.8 -0.7333333333333334 0  0.8666666666666667 -0.7333333333333334 0  0.9333333333333333 -0.7333333333333334 0  1 -0.7333333333333334 0  -1 -0.6666666666666667 0  -0.9333333333333333 -0.6666666666666667 0  -0.8666666666666667 -0.6666666666666667 0  -0.8 -0.6666666666666667 0  -0.7333333333333334 -0.6666666666666667 0  -0.6666666666666667 -0.6666666666666667 0  -0.6 -0.6666666666666667 0  -0.5333333333333333 -0.6666666666666667 0  -0.4666666666666667 -0.6666666666666667 0  -0.4 -0.6666666666666667 0  -0.3333333333333334 -0.6666666666666667 0  -0.2666666666666667 -0.6666666666666667 0  -0.2 -0.6666666666666667 0  -0.1333333333333333 -0.6666666666666667 0  -0.06666666666666665 -0.6666666666666667 0  0 -0.6666666666666667 0  0.06666666666666665 -0.6666666666666667 0  0.1333333333333333 -0.6666666666666667 0  0.2 -0.6666666666666667 0  0.2666666666666666 -0.6666666666666667 0  0.3333333333333333 -0.6666666666666667 0  0.3999999999999999 -0.6666666666666667 0  0.4666666666666666 -0.6666666666666667 0  0.5333333333333334 -0.6666666666666667 0  0.6000000000000001 -0.6666666666666667 0  0.6666666666666667 -0.6666666666666667 0  0.7333333333333334 -0.6666666666666667 0  0.8 -0.6666666666666667 0  0.8666666666666667 -0.6666666666666667 0  0.9333333333333333 -0.6666666666666667 0  1 -0.6666666666666667 0  -1 -0.6 0  -0.9333333333333333 -0.6 0  -0.8666666666666667 -0.6 0  -0.8 -0.6 0  -0.7333333333333334 -0.6 0  -0.6666666666666667 -0.6 0  -0.6 -0.6 0  -0.5333333333333333 -0.6 0  -0.4666666666666667 -0.6 0  -0.4 -0.6 0  -0.3333333333333334 -0.6 0  -0.2666666666666667 -0.6 0  -0.2 -0.6 0  -0.1333333333333333 -0.6 0  -0.06666666666666665 -0.6 0  0 -0.6 0  0.06666666666666665 -0.6 0  0.1333333333333333 -0.6 0  0.2 -0.6 0  0.2666666666666666 -0.6 0  0.3333333333333333 -0.6 0  0.3999999999999999 -0.6 0  0.4666666666666666 -0.6 0  0.5333333333333334 -0.6 0  0.6000000000000001 -0.6 0  0.6666666666666667 -0.6 0  0.7333333333333334 -0.6 0  0.8 -0.6 0  0.8666666666666667 -0.6 0  0.9333333333333333 -0.6 0  1 -0.6 0  -1 -0.5333333333333333 0  -0.9333333333333333 -0.5333333333333333 0  -0.8666666666666667 -0.5333333333333333 0  -0.8 -0.5333333333333333 0  -0.7333333333333334 -0.5333333333333333 0  -0.6666666666666667 -0.5333333333333333 0  -0.6 -0.5333333333333333 0  -0.5333333333333333 -0.5333333333333333 0  -0.4666666666666667 -0.5333333333333333 0  -0.4 -0.5333333333333333 0  -0.3333333333333334 -0.5333333333333333 0  -0.2666666666666667 -0.5333333333333333 0  -0.2 -0.5333333333333333 0  -0.1333333333333333 -0.5333333333333333 0  -0.06666666666666665 -0.5333333333333333 0  0 -0.5333333333333333 0  0.06666666666666665 -0.5333333333333333 0  0.1333333333333333 -0.5333333333333333 0  0.2 -0.5333333333333333 0  0.2666666666666666 -0.5333333333333333 0  0.3333333333333333 -0.5333333333333333 0  0.3999999999999999 -0.5333333333333333 0  0.4666666666666666 -0.5333333333333333 0  0.5333333333333334 -0.5333333333333333 0  0.6000000000000001 -0.5333333333333333 0  0.6666666666666667 -0.5333333333333333 0  0.7333333333333334 -0.5333333333333333 0  0.8 -0.5333333333333333 0  0.8666666666666667 -0.5333333333333333 0  0.9333333333333333 -0.5333333333333333 0  1 -0.5333333333333333 0  -1 -0.4666666666666667 0  -0.9333333333333333 -0.4666666666666667 0  -0.8666666666666667 -0.4666666666666667 0  -0.8 -0.4666666666666667 0  -0.7333333333333334 -0.4666666666666667 0  -0.6666666666666667 -0.4666666666666667 0  -0.6 -0.4666666666666667 0  -0.5333333333333333 -0.4666666666666667 0  -0.4666666666666667 -0.4666666666666667 0  -0.4 -0.4666666666666667 0  -0.3333333333333334 -0.4666666666666667 0  -0.2666666666666667 -0.4666666666666667 0  -0.2 -0.4666666666666667 0  -0.1333333333333333 -0.4666666666666667 0  -0.06666666666666665 -0.4666666666666667 0  0 -0.4666666666666667 0  0.06666666666666665 -0.4666666666666667 0  0.1333333333333333 -0.4666666666666667 0  0.2 -0.4666666666666667 0  0.2666666666666666 -0.4666666666666667 0  0.3333333333333333 -0.4666666666666667 0  0.3999999999999999 -0.4666666666666667 0  0.4666666666666666 -0.4666666666666667 0  0.5333333333333334 -0.4666666666666667 0  0.6000000000000001 -0.4666666666666667 0  0.6666666666666667 -0.4666666666666667 0  0.7333333333333334 -0.4666666666666667 0  0.8 -0.4666666666666667 0  0.8666666666666667 -0.4666666666666667 0  0.9333333333333333 -0.4666666666666667 0  1 -0.4666666666666667 0  -1 -0.4 0  -0.9333333333333333 -0.4 0  -0.8666666666666667 -0.4 0  -0.8 -0.4 0  -0.7333333333333334 -0.4 0  -0.6666666666666667 -0.4 0  -0.6 -0.4 0  -0.5333333333333333 -0.4 0  -0.4666666666666667 -0.4 0  -0.4 -0.4 0  -0.3333333333333334 -0.4 0  -0.2666666666666667 -0.4 0  -0.2 -0.4 0  -0.1333333333333333 -0.4 0  -0.06666666666666665 -0.4 0  0 -0.4 0  0.06666666666666665 -0.4 0  0.1333333333333333 -0.4 0  0.2 -0.4 0  0.2666666666666666 -0.4 0  0.3333333333333333 -0.4 0  0.3999999999999999 -0.4 0  0.4666666666666666 -0.4 0  0.5333333333333334 -0.4 0  0.6000000000000001 -0.4 0  0.6666666666666667 -0.4 0  0.7333333333333334 -0.4 0 
[...]
<PointData  Scalars="f_24"> 
<DataArray  type="Float64"  Name="f_24"  format="ascii">0.0000000000000000e+00  0.0000000000000000e+00  0.0000000000000000e+00  0.0000000000000000e+00  0.0000000000000000e+00  0.0000000000000000e+00  0.0000000000000000e+00  0.0000000000000000e+00  0.0000000000000000e+00  0.0000000000000000e+00  0.0000000000000000e+00  0.0000000000000000e+00  0.0000000000000000e+00  0.0000000000000000e+00  0.0000000000000000e+00  0.0000000000000000e+00  0.0000000000000000e+00  0.0000000000000000e+00  0.0000000000000000e+00  0.0000000000000000e+00  0.0000000000000000e+00  0.0000000000000000e+00  0.0000000000000000e+00  0.0000000000000000e+00  0.0000000000000000e+00  0.0000000000000000e+00  0.0000000000000000e+00  0.0000000000000000e+00  0.0000000000000000e+00  0.0000000000000000e+00  1.2460812529142478e+01  0.0000000000000000e+00  5.6580227773673587e-02  1.1508932111632607e-01  1.7011317447615062e-01  2.2176986017435274e-01  2.7087093927295203e-01  3.1806856985522602e-01  3.6401139653626269e-01  4.0937890965046853e-01  4.5490594365025133e-01  5.0140732701080881e-01  5.4980223390409877e-01  6.0114437465497650e-01  6.5666321572329556e-01  7.1782098344094469e-01  7.8639211520085883e-01  8.6457425755184447e-01  9.5514384150926068e-01  1.0616757627416209e+00  1.1888566917757486e+00  1.3429373319703173e+00  1.5323945885448853e+00  1.7689178200701630e+00  2.0689097655705906e+00  2.4558371711192031e+00  2.9640586785946215e+00  3.6453889140147986e+00  4.5812992473324989e+00  5.9073269766859893e+00  7.8726243449857956e+00  1.0880612279536322e+01  0.0000000000000000e+00  1.0851519581594729e-01  2.1466519936820022e-01  3.0278747533428979e-01  3.7087462725613102e-01  4.2022423711721929e-01  4.5278505484514930e-01  4.7111605157386677e-01  4.7791664584261734e-01  4.7577680994224475e-01  4.6701990230327661e-01  4.5363096387765728e-01  4.3725328931214713e-01  4.1922736956355483e-01  4.0065644646632320e-01  3.8249085849175352e-01  3.6563062887931835e-01  3.5105541439743837e-01  3.4000284256913710e-01  3.3423412300071725e-01  3.3645599281053667e-01  3.5102078765801531e-01  3.8512110784788917e-01  4.5087030675718032e-01  5.6899368063868783e-01  7.7553447374757323e-01  1.1345193724933056e+00  1.7631993692909163e+00  2.8891163754654592e+00  4.9943254212966472e+00  9.4556952912501231e+00  0.0000000000000000e+00  1.5355118105434928e-01  2.9093069626697915e-01  3.8285770752684950e-01  4.2729853237418569e-01  4.3213988098323519e-01  4.0764522462058062e-01  3.6445711742563064e-01  3.1161101361435417e-01  2.5595136840819649e-01  2.0211361117388962e-01  1.5288077392438906e-01  1.0965310384971698e-01  7.2889505506444532e-02  4.2466745077013465e-02  1.7943788774015902e-02  -1.2557500988380739e-03  -1.5719737176414866e-02  -2.5955558900811512e-02  -3.2296812503785376e-02  -3.4757495295395339e-02  -3.2737358547690880e-02  -2.4376947418080601e-02  -5.1301384586648797e-03  3.5376293032181302e-02  1.2019990440700556e-01  3.0002716205443108e-01  6.8680598312082641e-01  1.5319879589660963e+00  3.4517221953152006e+00  8.1755391003703792e+00  0.0000000000000000e+00  1.9046764925512816e-01  3.4221681584303254e-01  4.1356850005281576e-01  4.1076643556627918e-01  3.5874281188973528e-01  2.8296594830167970e-01  2.0375479714615968e-01  1.3353481360153194e-01  7.7969291022713272e-02  3.7975040815239940e-02  1.1833504412975503e-02  -3.2593937997619981e-03  -1.0242003315531531e-02  -1.1708013088105759e-02  -9.7367238140612360e-03  -5.8915416592878501e-03  -1.2952238904147893e-03  3.2703844987656333e-03  7.2665368077818116e-03  1.0314967136730059e-02  1.2150241804824902e-02  1.2676060384586019e-02  1.2364600397899567e-02  1.3727642952277271e-02  2.5894216661884309e-02  7.7677897088688733e-02  2.5245885489866143e-01  7.8452286340351318e-01  2.3267607531605057e+00  7.0299904522437204e+00  0.0000000000000000e+00  2.1889219881694100e-01  3.7100522977412687e-01  4.0777298283168639e-01  3.5417002181553547e-01  2.5928123960662702e-01  1.6236563404764640e-01  8.5496778846002527e-02  3.4713606148266497e-02  6.7911545628695719e-03  -5.0649243444754405e-03  -7.5182868796165149e-03  -5.6021662877034440e-03  -2.4910815674087454e-03  1.4089215905382850e-04  1.6281527513467048e-03  1.8928959853023561e-03  1.1479902642038901e-03  -2.8659122007495381e-04  -2.0862031165447747e-03  -3.9772498013903061e-03  -5.7793394519742199e-03  -7.4674985487164953e-03  -9.2609953531477204e-03  -1.1511278119468536e-02  -1.3134692958068949e-02  -3.8228174211607092e-03  6.5913003726623370e-02  3.8084501174684959e-01  1.5877087202825326e+00  6.0092653014768906e+00  0.0000000000000000e+00  2.3911939827208473e-01  3.8186402128036834e-01  3.8013958110946600e-01  2.8529566895333058e-01  1.7020638298672452e-01  7.8933133643753137e-02  2.4556556283974330e-02  3.9356335534351393e-04  -5.8337996074315128e-03  -4.4748935761427461e-03  -1.5597348090112591e-03  4.2231106649423707e-04  1.0582069898844887e-03  7.8557798526529272e-04  1.9270716711416308e-04  -2.7674184541657290e-04  -3.8931135616062680e-04  -8.6322224663690501e-05  5.7756690970509441e-04  1.4905860528689344e-03  2.5239143565688373e-03  3.5408748942671775e-03  4.3205671300606775e-03  4.2555331399298799e-03  1.9791252538873027e-03  -2.3368522718404789e-03  1.1564736751087511e-02  1.7360162905521520e-01  1.0578296464356240e+00  5.1039488119367595e+00  0.0000000000000000e+00  2.5189353042187063e-01  3.7981511185880140e-01  3.4277648619515533e-01  2.2090815395320418e-01  1.0448229107329220e-01  3.1969923403178849e-02  1.4438845815215821e-03  -5.0860045747616843e-03  -3.0367359184767708e-03  -3.9767582481222156e-04  6.8030709881186559e-04  5.6731000270844438e-04  1.1099217348263517e-04  -1.8460476058736330e-04  -2.0928922757343146e-04  -7.4419638924079408e-05  5.3592215705677473e-05  4.6356212574071953e-05  -1.5694825248348959e-04  -5.5393898893471094e-04  -1.0947074541005394e-03  -1.6885314349126717e-03  -2.2047254313994060e-03  -2.5704378519713343e-03  -3.4646621629651768e-03  -7.4789094742793516e-03  -1.1633181263630899e-02  5.8964774802995439e-02  6.9123673193327295e-01  4.3049953567503199e+00  0.0000000000000000e+00  2.5819878372095445e-01  3.6934945118457668e-01  3.0389855780436797e-01  1.6822166091761340e-01  6.1430147592056443e-02  9.5171418525380955e-03  -4.1160672027659075e-03  -3.0627078460234531e-03  -3.2907284481702354e-04  5.7275494652437101e-04  3.2902022007867991e-04  -3.7425144004426657e-05  -1.3647135868718012e-04  -5.4369542325343265e-05  3.9862976542646794e-05  6.1822676501509168e-05  2.7361804668582513e-05  1.1476511111961449e-06  4.7872069371436823e-05  2.0551474154111805e-04  4.7732613785147907e-04  8.3393700331044240e-04  1.2467355203327705e-03  1.7508402165267729e-03  2.3230374704802121e-03  1.0545493547418374e-03  -6.9988333532871212e-03  1.1860418237503298e-02  4.3879949374221555e-01  3.6037285183046932e+00  0.0000000000000000e+00  2.5909138794297099e-01  3.5400429425121138e-01  2.6820562611056536e-01  1.2853923127444036e-01  3.5454095877099169e-02  4.0178926886334288e-04  -3.7941476673060935e-03  -9.6497818355439392e-04  4.5701859395810157e-04  2.9853131341554573e-04  -3.4484459103085034e-05  -9.6736876002661242e-05  -1.4187974796976164e-05  3.1805023755496347e-05  1.7265721912773201e-05  -1.3077547929142419e-05  -2.2373385213391371e-05  -1.4577962461256275e-05  -2.0746318752546074e-05  -7.6318935118145268e-05  -2.0459232442644076e-04  -4.0908518002142323e-04  -6.9190711152254897e-04  -9.9083272503107541e-04  -1.0772968332600117e-03  -1.1784409640385300e-03  -7.1383256114147557e-03  -1.2726442404729071e-02  2.6063731852539496e-01  2.9918410882471083e+00  0.0000000000000000e+00  2.5558551048597600e-01  3.3630648143625491e-01  2.3785619410337358e-01  1.0038548560067974e-01  2.0736863821918739e-02  -2.5365534491063081e-03  -2.4065959778776795e-03  1.8621898288206508e-05  3.9414095860482536e-04  2.5442877495242831e-05  -8.0427223679381502e-05  -1.7071194408349749e-05  2.4165793944723204e-05  7.5958749324291337e-06  -8.0361717688061563e-06  -4.7464915983320136e-06  6.3206708911753797e-06  1.0540122394443412e-05  1.2060880282963164e-05  2.9291170981685835e-05  8.4956452005598699e-05  1.9285551074707698e-04  3.6278756251894852e-04  5.3000904860210814e-04  8.2335734533649696e-04  1.4949105138584479e-03  -7.0754360641517799e-04  -1.5747299614248700e-02  1.4645650324436263e-01  2.4613950674849350e+00  0.0000000000000000e+00  2.4858832002154604e-01  3.1790082592132163e-01  2.1342478888758942e-01  8.1449715026924122e-02  1.2887395992062730e-02  -3.0359757704027535e-03  -1.3474227225003371e-03  2.9770904421628748e-04  2.0262573387904700e-04  -6.2038097878644173e-05  -3.4708770164145092e-05  1.3786160956749946e-05  1.0208235997644078e-05  -6.0112088429164141e-06  -2.6964745412245093e-06  2.2068532521288700e-06  8.9635130483072594e-07  -3.8733862170012743e-06  -6.7174497997239364e-06  -1.2190610648935413e-05  -3.4245820804940185e-05  -8.4324997958436498e-05  -1.8060658482262412e-04  -2.9685428243241793e-04  -5.6406280125113146e-04  -2.6495019102723251e-04  -8.7115011662167315e-04  -1.5689594394953526e-02  6.6057087935075823e-02  2.0048216661856504e+00  0.0000000000000000e+00  2.3887246286582375e-01  2.9974126545757912e-01  1.9461913080000165e-01  6.9536030778906077e-02  9.0810584860086807e-03  -2.7615887216246903e-03  -7.6853381095892009e-04  3.0510108839933311e-04  8.3674094755334342e-05  -6.1430468721256320e-05  -4.1209234387061683e-06  1.1983348076302394e-05  -1.3652531704675442e-07  -4.0594522833227760e-06  1.4991235871887677e-06  8.8446833555458495e-07  -6.1005997539053467e-07  2.5908169107710711e-07  2.7522424520915701e-06  5.2179699474417042e-06  1.3969103748316431e-05  3.3639547364362915e-05  9.1451144864296261e-05  1.5685646790343589e-04  2.8728026332405473e-04  3.7493766094343311e-04  1.7156893119718039e-03  -1.0465889804799745e-02  2.0614190131930756e-02  1.6149213037768650e+00  0.0000000000000000e+00  2.2707325425116331e-01  2.8227854019024473e-01  1.8073773190134726e-01  6.2903421725889502e-02  7.7006128671348447e-03  -2.3342934052571524e-03  -5.2828845336690545e-04  2.4900912382449950e-04  3.6632987305691877e-05  -4.3840259051823965e-05  4.3921856134733477e-06  6.2446615801872380e-06  -2.0460496600370608e-06  -1.2721858655186448e-06  1.2593142558899979e-06  -2.5623015976184854e-07  -2.9814598239550074e-07  1.0036991455337987e-07  -6.5484976618424932e-07  -2.0480045539465941e-06  -6.2338666896964368e-06  -1.0620427081551598e-05  -4.5229829781659389e-05  -5.5196633902539765e-05  -1.9601364922441442e-04  -2.4791425369784329e-04  4.9302682974860742e-04  -6.4826280924777172e-03  -1.0105729787140968e-02  1.2848636089463072e+00  0.0000000000000000e+00  2.1370025248641869e-01  2.6561694995483864e-01  1.7092439160035278e-01  6.0298779789192548e-02  7.9371370344112676e-03  -1.9066027286730649e-03  -4.9029192798123256e-04  1.9195291676271810e-04  2.9518993625211041e-05  -3.0539005178374880e-05  2.9678658213281037e-06  3.7496246337237261e-06  -1.3126119065617244e-06  -4.4183366917213361e-07  4.6391487586434893e-07  -1.8172610087351913e-07  2.2711127862252801e-08  8.5409872070077068e-08  1.4077361391686778e-07  2.2323846718650308e-07  2.9332512442522262e-06  2.0396104910616538e-06  2.6997335362312118e-05  1.7663273223367403e-05  1.5316653864784127e-04  -5.9155391307293418e-05  1.1001728113498380e-03  -2.4644572333637946e-03  -2.3024773441427979e-02  1.0081874196418290e+00  0.0000000000000000e+00  1.9915580346680262e-01  2.4963447982763887e-01  1.6428725047068957e-01  6.0862276765556243e-02  9.4915971006202041e-03  -1.4216747464656041e-03  -5.7127894272787931e-04  1.3302771094605783e-04  4.1800657450089032e-05  -2.0966896555976380e-05  -1.5977122314121133e-06  2.9006878851762790e-06  -1.5767730033977289e-07  -2.6979645840757289e-07  7.5602683411361134e-08  -4.1443500897414066e-08  1.3861388672859414e-08  4.2580770872257888e-08  -1.3485116672110126e-07  4.8077164965630067e-08  -2.4647571085106380e-06  2.7099912194498477e-06  -1.2651184874380612e-05  1.2513731323719531e-05  -6.1217436545344585e-05  -4.9213590969972019e-05  4.1781846652005112e-06  1.2691679091932981e-04  -3.0239760479042158e-02  7.7880078307140488e-01  0.0000000000000000e+00  1.8375570484494061e-01  2.3407124860654160e-01  1.5993760346382538e-01  6.3991982666410804e-02  1.2380104072144986e-02  -6.9614576772433279e-04  -7.1243199829460933e-04  4.6785681445265403e-05  6.0381017201028582e-05  -8.4383027783552489e-06  -6.2709732862989972e-06  1.0555413624614248e-06  7.0772347244009093e-07  7.9763165817011453e-08  9.5032685139405315e-09  -1.9670325080205018e-08  7.1242800060355446e-09  1.0237099618821993e-07  1.7240385316250595e-08  -7.0119472667296237e-07  6.6776378714885134e-07  -1.7766432460095160e-06  1.5709824031304673e-05  7.0460395442090353e-07  6.7833933330419975e-05  2.1042798892027417e-06  9.0151332903302850e-05  1.7327142072237488e-03  -2.9498420248034847e-02  5.9098095570313269e-01  0.0000000000000000e+00  1.6775018938267286e-01  2.1859368628365691e-01  1.5698824487408800e-01  6.9200873737673058e-02  1.6801542710411673e-02  5.8158620075567417e-04  -8.2320478112004507e-04  -9.8534431639436300e-05  6.4690700098460425e-05  1.2517269131220384e-05  -6.1056550924285758e-06  -2.3666515891257371e-06  -1.0403875461070647e-07  3.3050731890164295e-08  -7.8138417959219813e-08  -4.2626255236176006e-08  8.4514066389312886e-08  2.8584462731996593e-07  -4.8431670243674299e-07  -1.2293633411130334e-07  -3.3854871445987752e-06  8.1653827178832492e-06  -3.9686891067733172e-06  4.6219310156464658e-05  -3.8461972697140705e-05  1.3939569884172798e-04  -4.5577791001594458e-04  2.5398664253853420e-03  -2.7247470621688231e-02  4.3937440326523253e-01  0.0000000000000000e+00  1.5134169525601660e-01  2.0284398136620979e-01  1.5453759290059116e-01  7.5977337899766906e-02  2.3018041672051542e-02  2.8780739517707795e-03  -6.9852010351782181e-04  -3.0882252746000470e-04  1.4711709692164182e-05  3.3283782827850638e-05  5.7324520524287375e-06  -2.0833319726700424e-06  -1.6242932776867321e-06  -7.6388059151130711e-07  -2.7903426017466510e-07  1.6299268884165454e-07  4.3130326131654783e-07  1.9974521802208209e-07  -1.0080936514265553e-06  -2.2670688213606744e-06  -5.1900138528594856e-09  5.0478449938766226e-06  2.2408511908677414e-05  3.3017348463091389e-05  3.1434403439741200e-05  1.2075791699219822e-04  -3.6563228067352187e-04  2.5993685402313114e-03  -2.2311399689464897e-02  3.1899680074604747e-01  0.0000000000000000e+00  1.3470451443460910e-01  1.8647953975059198e-01  1.5166080823632108e-01  8.3654274636931134e-02  3.1205560906408428e-02  6.8087804929638611e-03  8.8920136298780404e-05  -4.7817449348612376e-04  -1.3117835669598308e-04  1.2088829702638617e-05  2.0367764966656012e-05  8.3716908164739170e-06  2.6987395107001283e-06  1.3333810000875321e-06  1.2891446373448399e-06  1.2983530022373879e-06  5.7878574890337360e-07  -1.1192231187580085e-06  -3.7030373152412196e-06  -2.3876269154241447e-06  5.2951670566939288e-07  2.3540564785658012e-05  2.6419126726689569e-05  8.2674156653532609e-05  2.6995067224267578e-06  1.9917019140413910e-04  -4.8392784182540186e-04  2.4000939814980953e-03  -1.7677430478114743e-02  2.2523303239404333e-01  0.0000000000000000e+00  1.1799479186027836e-01  1.6921118167202517e-01  1.4741932967984903e-01  9.1303447688070916e-02  4.1249565727640665e-02  1.3027567277302822e-02  2.2738964059541666e-03  -2.2434782309581220e-04  -3.0876291416479613e-04  -1.0669624972390583e-04  -1.3474701844505932e-05  7.4102631325492480e-06  7.6097666383752880e-06  5.0208572136351334e-06  2.5798729990362950e-06  -1.6512513458343145e-07  -3.5535002975410161e-06  -6.7695535971869856e-06  -6.7267964846138753e-06  -3.4461545691477793e-08  1.9095278022695916e-05  4.4930423284126525e-05  7.6423958558850279e-05  9.7871100843805473e-05  7.0529161690076179e-05  1.6070549720954245e-04  -3.3418438035541655e-04  1.8891242389529662e-03  -1.2842734966801245e-02  1.5383719171780844e-01  0.0000000000000000e+00  1.0137452356780335e-01  1.5083938284806836e-01  1.4090780539989770e-01  9.7681728286999669e-02  5.2499997572214234e-02  2.1938015433854100e-02  6.8314890269279994e-03  1.2918105739172475e-03  -1.0009212924400240e-04  -2.2674421863188606e-04  -1.3275580244750636e-04  -6.2224365213632739e-05  -3.0395610528008333e-05  -1.9178353529705149e-05  -1.6712265605392791e-05  -1.7278686403883496e-05  -1.7142062150454836e-05  -1.2204005948296850e-05  1.6747744647881959e-06  2.9155700941406274e-05  6.5559518414067249e-05  1.1258697759209806e-04  1.3585004630166421e-04  1.6619120251388752e-04  9.9082977607816393e-05  1.8461933697562112e-04  -2.6775037515542260e-04  1.4116393234453646e-03  -8.9187926115261579e-03  1.0093258148605413e-01  0.0000000000000000e+00  8.5006699205010486e-02  1.3129458946058753e-01  1.3133412350192025e-01  1.0127374752934118e-01  6.3558923894970337e-02  3.3217240535132919e-02  1.4571470028364031e-02  5.3184667928971672e-03  1.5336447716553015e-03  2.6470912777757814e-04  -6.2904521687276934e-05  -1.0675697220282106e-04  -8.7961570130520248e-05  -6.4419439386417503e-05  -4.4708473727333077e-05  -2.5428187024936155e-05  -1.1945027678226254e-06  3.2555423716486840e-05  7.8541719500575742e-05  1.3325975188839033e-04  1.9135347560349125e-04  2.3361601365540661e-04  2.5365791888319622e-04  2.3458029826807308e-04  1.7354274656269461e-04  1.6306823654595526e-04  -1.3177138838043801e-04  9.1933622072284265e-04  -5.6732566276971198e-03  6.3011713727614355e-02  0.0000000000000000e+00  6.9100248521051844e-02  1.1068299065317565e-01  1.1815801281867150e-01  1.0047660530345309e-01  7.2246259671058605e-02  4.5301477506530997e-02  2.5317265137896814e-02  1.2860497045530318e-02  6.0646797061748694e-03  2.7248236916166393e-03  1.2093598683686267e-03  5.6126506941579118e-04  2.9821677635759883e-04  2.0183448151271432e-04  1.8040514388063239e-04  1.9720435029182544e-04  2.3704508892845433e-04  2.9163680966860360e-04  3.5206365108612664e-04  4.0809801038824047e-04  4.4354509091671350e-04  4.4933200338947803e-04  4.0959271555173962e-04  3.4140683482556891e-04  2.3005044266275168e-04  1.7388167881827009e-04  -5.0004712020559691e-05  5.5681997976487270e-04  -3.3408389330080047e-03  3.6936309731445759e-02  0.0000000000000000e+00  5.3871788299603603e-02  8.9322205171805558e-02  1.0123953748048231e-01  9.3943266736525755e-02  7.5912008594041694e-02  5.5202017952454788e-02  3.6994098181527664e-02  2.3346387608942053e-02  1.4189323104963479e-02  8.5132803283302725e-03  5.1812903289709259e-03  3.2903152855261616e-03  2.2363343288546557e-03  1.6545445895822233e-03  1.3368393797184620e-03  1.1667095860639443e-03  1.0771747452772691e-03  1.0265201644417484e-03  9.8636080864689048e-04  9.3444245626725765e-04  8.5772771417005130e-04  7.4580382012794501e-04  6.0689490476673622e-04  4.4688477145439053e-04  2.9270966690793241e-04  1.7292252925719704e-04  2.2121801871905800e-05  2.8792036710383734e-04  -1.7394806205878360e-03  1.9937300046627946e-02  0.0000000000000000e+00  3.9649317445683292e-02  6.7814601846794290e-02  8.1055225531026787e-02  8.1090969076860586e-02  7.2221615734394978e-02  5.9125227481761293e-02  4.5476107783880046e-02  3.3462237893307996e-02  2.3953457340910551e-02  1.6953131572452169e-02  1.2046428257768327e-02  8.7110665951145323e-03  6.4774467610039807e-03  4.9827225035385643e-03  3.9687484614721888e-03  3.2601176837002781e-03  2.7399099705403950e-03  2.3311064061113294e-03  1.9830273775736837e-03  1.6653702203324749e-03  1.3605177419882121e-03  1.0669021607290312e-03  7.8728859312875144e-04  5.3815751068325506e-04  3.2867223711124374e-04  1.7814081483028186e-04  5.5959020568548828e-05  1.3156263277968780e-04  -7.7570943738353723e-04  9.6148244823630151e-03  0.0000000000000000e+00  2.6753392598592569e-02  4.7029767933446279e-02  5.8802174366213829e-02  6.2600301899677774e-02  6.0274037114290947e-02  5.4089317260561570e-02  4.6105667255803465e-02  3.7859471688213110e-02  3.0297318996827634e-02  2.3865549261696199e-02  1.8662509728719200e-02  1.4587529614844247e-02  1.1453690974220989e-02  9.05853400038