<?xml version="1.0"?>
<VTKFile type="UnstructuredGrid"  version="0.1"  >
<UnstructuredGrid>
<Piece  NumberOfPoints="961" NumberOfCells="1800">
<Points>
<DataArray  type="Float64"  NumberOfComponents="3"  format="ascii">-1 -1 0  -0.9333333333333333 -1 0  -0.8666666666666667 -1 0  -0.8 -1 0  -0.7333333333333334 -1 0  -0.6666666666666667 -1 0  -0.6 -1 0  -0.5333333333333333 -1 0  -0.4666666666666667 -1 0  -0.4 -1 0  -0.3333333333333334 -1 0  -0.2666666666666667 -1 0  -0.2 -1 0  -0.1333333333333333 -1 0  -0.06666666666666665 -1 0  0 -1 0  0.06666666666666665 -1 0  0.1333333333333333 -1 0  0.2 -1 0  0.2666666666666666 -1 0  0.3333333333333333 -1 0  0.3999999999999999 -1 0  0.4666666666666666 -1 0  0.5333333333333334 -1 0  0.6000000000000001 -1 0  0.6666666666666667 -1 0  0.7333333333333334 -1 0  0.8 -1 0  0.8666666666666667 -1 0  0.9333333333333333 -1 0  1 -1 0  -1 -0.9333333333333333 0  -0.9333333333333333 -0.9333333333333333 0  -0.8666666666666667 -0.9333333333333333 0  -0.8 -0.9333333333333333 0  -0.7333333333333334 -0.9333333333333333 0  -0.6666666666666667 -0.9333333333333333 0  -0.6 -0.9333333333333333 0  -0.5333333333333333 -0.9333333333333333 0  -0.4666666666666667 -0.9333333333333333 0  -0.4 -0.9333333333333333 0  -0.3333333333333334 -0.9333333333333333 0  -0.2666666666666667 -0.9333333333333333 0  -0.2 -0.9333333333333333 0  -0.1333333333333333 -0.9333333333333333 0  -0.06666666666666665 -0.9333333333333333 0  0 -0.9333333333333333 0  0.06666666666666665 -0.9333333333333333 0  0.1333333333333333 -0.9333333333333333 0  0.2 -0.9333333333333333 0  0.2666666666666666 -0.9333333333333333 0  0.3333333333333333 -0.9333333333333333 0  0.3999999999999999 -0.9333333333333333 0  0.4666666666666666 -0.9333333333333333 0  0.5333333333333334 -0.9333333333333333 0  0.6000000000000001 -0.9333333333333333 0  0.6666666666666667 -0.9333333333333333 0  0.7333333333333334 -0.9333333333333333 0  0.8 -0.9333333333333333 0  0.8666666666666667 -0.9333333333333333 0  0.9333333333333333 -0.9333333333333333 0  1 -0.9333333333333333 0  -1 -0.8666666666666667 0  -0.9333333333333333 -0.8666666666666667 0  -0.8666666666666667 -0.8666666666666667 0  -0.8 -0.8666666666666667 0  -0.7333333333333334 -0.8666666666666667 0  -0.6666666666666667 -0.8666666666666667 0  -0.6 -0.8666666666666667 0  -0.5333333333333333 -0.8666666666666667 0  -0.4666666666666667 -0.8666666666666667 0  -0.4 -0.8666666666666667 0  -0.3333333333333334 -0.8666666666666667 0  -0.2666666666666667 -0.8666666666666667 0  -0.2 -0.8666666666666667 0  -0.1333333333333333 -0.8666666666666667 0  -0.06666666666666665 -0.8666666666666667 0  0 -0.8666666666666667 0  0.06666666666666665 -0.8666666666666667 0  0.1333333333333333 -0.8666666666666667 0  0.2 -0.8666666666666667 0  0.2666666666666666 -0.8666666666666667 0  0.3333333333333333 -0.8666666666666667 0  0.3999999999999999 -0.8666666666666667 0  0.4666666666666666 -0.8666666666666667 0  0.5333333333333334 -0.8666666666666667 0  0.6000000000000001 -0.8666666666666667 0  0.6666666666666667 -0.8666666666666667 0  0.7333333333333334 -0.8666666666666667 0  0.8 -0.8666666666666667 0  0.8666666666666667 -0.8666666666666667 0  0.9333333333333333 -0.8666666666666667 0  1 -0.8666666666666667 0  -1 -0.8 0  -0.9333333333333333 -0.8 0  -0.8666666666666667 -0.8 0  -0.8 -0.8 0  -0.7333333333333334 -0.8 0  -0.6666666666666667 -0.8 0  -0.6 -0.8 0  -0.5333333333333333 -0.8 0  -0.4666666666666667 -0.8 0  -0.4 -0.8 0  -0.3333333333333334 -0.8 0  -0.2666666666666667 -0.8 0  -0.2 -0.8 0  -0.1333333333333333 -0.8 0  -0.06666666666666665 -0.8 0  0 -0.8 0  0.06666666666666665 -0.8 0  0.1333333333333333 -0.8 0  0.2 -0.8 0  0.2666666666666666 -0.8 0  0.3333333333333333 -0.8 0  0.3999999999999999 -0.8 0  0.4666666666666666 -0.8 0  0.5333333333333334 -0.8 0  0.6000000000000001 -0.8 0  0.6666666666666667 -0.8 0  0.7333333333333334 -0.8 0  0.8 -0.8 0  0.8666666666666667 -0.8 0  0.9333333333333333 -0.8 0  1 -0.8 0  -1 -0.7333333333333334 0  -0.9333333333333333 -0.7333333333333334 0  -0.8666666666666667 -0.7333333333333334 0  -0.8 -0.7333333333333334 0  -0.7333333333333334 -0.7333333333333334 0  -0.6666666666666667 -0.7333333333333334 0  -0.6 -0.7333333333333334 0  -0.5333333333333333 -0.7333333333333334 0  -0.4666666666666667 -0.7333333333333334 0  -0.4 -0.7333333333333334 0  -0.3333333333333334 -0.7333333333333334 0  -0.2666666666666667 -0.7333333333333334 0  -0.2 -0.7333333333333334 0  -0.1333333333333333 -0.7333333333333334 0  -0.06666666666666665 -0.7333333333333334 0  0 -0.7333333333333334 0  0.06666666666666665 -0.7333333333333334 0  0.1333333333333333 -0.7333333333333334 0  0.2 -0.7333333333333334 0  0.2666666666666666 -0.7333333333333334 0  0.3333333333333333 -0.7333333333333334 0  0.3999999999999999 -0.7333333333333334 0  0.4666666666666666 -0.7333333333333334 0  0.5333333333333334 -0.7333333333333334 0  0.6000000000000001 -0.7333333333333334 0  0.6666666666666667 -0.7333333333333334 0  0.7333333333333334 -0.7333333333333334 0  0.8 -0.7333333333333334 0  0.8666666666666667 -0.7333333333333334 0  0.9333333333333333 -0.7333333333333334 0  1 -0.7333333333333334 0  -1 -0.6666666666666667 0  -0.9333333333333333 -0.6666666666666667 0  -0.8666666666666667 -0.6666666666666667 0  -0.8 -0.6666666666666667 0  -0.7333333333333334 -0.6666666666666667 0  -0.6666666666666667 -0.6666666666666667 0  -0.6 -0.6666666666666667 0  -0.5333333333333333 -0.6666666666666667 0  -0.4666666666666667 -0.6666666666666667 0  -0.4 -0.6666666666666667 0  -0.3333333333333334 -0.6666666666666667 0  -0.2666666666666667 -0.6666666666666667 0  -0.2 -0.6666666666666667 0  -0.1333333333333333 -0.6666666666666667 0  -0.06666666666666665 -0.6666666666666667 0  0 -0.6666666666666667 0  0.06666666666666665 -0.6666666666666667 0  0.1333333333333333 -0.6666666666666667 0  0.2 -0.6666666666666667 0  0.2666666666666666 -0.6666666666666667 0  0.3333333333333333 -0.6666666666666667 0  0.3999999999999999 -0.6666666666666667 0  0.4666666666666666 -0.6666666666666667 0  0.5333333333333334 -0.6666666666666667 0  0.6000000000000001 -0.6666666666666667 0  0.6666666666666667 -0.6666666666666667 0  0.7333333333333334 -0.6666666666666667 0  0.8 -0.6666666666666667 0  0.8666666666666667 -0.6666666666666667 0  0.9333333333333333 -0.6666666666666667 0  1 -0.6666666666666667 0  -1 -0.6 0  -0.9333333333333333 -0.6 0  -0.8666666666666667 -0.6 0  -0.8 -0.6 0  -0.7333333333333334 -0.6 0  -0.6666666666666667 -0.6 0  -0.6 -0.6 0  -0.5333333333333333 -0.6 0  -0.4666666666666667 -0.6 0  -0.4 -0.6 0  -0.3333333333333334 -0.6 0  -0.2666666666666667 -0.6 0  -0.2 -0.6 0  -0.1333333333333333 -0.6 0  -0.06666666666666665 -0.6 0  0 -0.6 0  0.06666666666666665 -0.6 0  0.1333333333333333 -0.6 0  0.2 -0.6 0  0.2666666666666666 -0.6 0  0.3333333333333333 -0.6 0  0.3999999999999999 -0.6 0  0.4666666666666666 -0.6 0  0.5333333333333334 -0.6 0  0.6000000000000001 -0.6 0  0.6666666666666667 -0.6 0  0.7333333333333334 -0.6 0  0.8 -0.6 0  0.8666666666666667 -0.6 0  0.9333333333333333 -0.6 0  1 -0.6 0  -1 -0.5333333333333333 0  -0.9333333333333333 -0.5333333333333333 0  -0.8666666666666667 -0.5333333333333333 0  -0.8 -0.5333333333333333 0  -0.7333333333333334 -0.5333333333333333 0  -0.6666666666666667 -0.5333333333333333 0  -0.6 -0.5333333333333333 0  -0.5333333333333333 -0.5333333333333333 0  -0.4666666666666667 -0.5333333333333333 0  -0.4 -0.5333333333333333 0  -0.3333333333333334 -0.5333333333333333 0  -0.2666666666666667 -0.5333333333333333 0  -0.2 -0.5333333333333333 0  -0.1333333333333333 -0.5333333333333333 0  -0.06666666666666665 -0.5333333333333333 0  0 -0.5333333333333333 0  0.06666666666666665 -0.5333333333333333 0  0.1333333333333333 -0.5333333333333333 0  0.2 -0.5333333333333333 0  0.2666666666666666 -0.5333333333333333 0  0.3333333333333333 -0.5333333333333333 0  0.3999999999999999 -0.5333333333333333 0  0.4666666666666666 -0.5333333333333333 0  0.5333333333333334 -0.5333333333333333 0  0.6000000000000001 -0.5333333333333333 0  0.6666666666666667 -0.5333333333333333 0  0.7333333333333334 -0.5333333333333333 0  0.8 -0.5333333333333333 0  0.8666666666666667 -0.5333333333333333 0  0.9333333333333333 -0.5333333333333333 0  1 -0.5333333333333333 0  -1 -0.4666666666666667 0  -0.9333333333333333 -0.4666666666666667 0  -0.8666666666666667 -0.4666666666666667 0  -0.8 -0.4666666666666667 0  -0.7333333333333334 -0.4666666666666667 0  -0.6666666666666667 -0.4666666666666667 0  -0.6 -0.4666666666666667 0  -0.5333333333333333 -0.4666666666666667 0  -0.4666666666666667 -0.4666666666666667 0  -0.4 -0.4666666666666667 0  -0.3333333333333334 -0.4666666666666667 0  -0.2666666666666667 -0.4666666666666667 0  -0.2 -0.4666666666666667 0  -0.1333333333333333 -0.4666666666666667 0  -0.06666666666666665 -0.4666666666666667 0  0 -0.4666666666666667 0  0.06666666666666665 -0.4666666666666667 0  0.1333333333333333 -0.4666666666666667 0  0.2 -0.4666666666666667 0  0.2666666666666666 -0.4666666666666667 0  0.3333333333333333 -0.4666666666666667 0  0.3999999999999999 -0.4666666666666667 0  0.4666666666666666 -0.4666666666666667 0  0.5333333333333334 -0.4666666666666667 0  0.6000000000000001 -0.4666666666666667 0  0.6666666666666667 -0.4666666666666667 0  0.7333333333333334 -0.4666666666666667 0  0.8 -0.4666666666666667 0  0.8666666666666667 -0.4666666666666667 0  0.9333333333333333 -0.4666666666666667 0  1 -0.4666666666666667 0  -1 -0.4 0  -0.9333333333333333 -0.4 0  -0.8666666666666667 -0.4 0  -0.8 -0.4 0  -0.7333333333333334 -0.4 0  -0.6666666666666667 -0.4 0  -0.6 -0.4 0  -0.5333333333333333 -0.4 0  -0.4666666666666667 -0.4 0  -0.4 -0.4 0  -0.3333333333333334 -0.4 0  -0.2666666666666667 -0.4 0  -0.2 -0.4 0  -0.1333333333333333 -0.4 0  -0.06666666666666665 -0.4 0  0 -0.4 0  0.06666666666666665 -0.4 0  0.1333333333333333 -0.4 0  0.2 -0.4 0  0.2666666666666666 -0.4 0  0.3333333333333333 -0.4 0  0.3999999999999999 -0.4 0  0.4666666666666666 -0.4 0  0.5333333333333334 -0.4 0  0.6000000000000001 -0.4 0  0.6666666666666667 -0.4 0  0.7333333333333334 -0.4 0 
[...]
<PointData  Scalars="f_24"> 
<DataArray  type="Float64"  Name="f_24"  format="ascii">0.0000000000000000e+00  0.0000000000000000e+00  0.0000000000000000e+00  0.0000000000000000e+00  0.0000000000000000e+00  0.0000000000000000e+00  0.0000000000000000e+00  0.0000000000000000e+00  0.0000000000000000e+00  0.0000000000000000e+00  0.0000000000000000e+00  0.0000000000000000e+00  0.0000000000000000e+00  0.0000000000000000e+00  0.0000000000000000e+00  0.0000000000000000e+00  0.0000000000000000e+00  0.0000000000000000e+00  0.0000000000000000e+00  0.0000000000000000e+00  0.0000000000000000e+00  0.0000000000000000e+00  0.0000000000000000e+00  0.0000000000000000e+00  0.0000000000000000e+00  0.0000000000000000e+00  0.0000000000000000e+00  0.0000000000000000e+00  0.0000000000000000e+00  0.0000000000000000e+00  9.7531345167409587e+00  0.0000000000000000e+00  4.7640609288538346e-02  9.2730372671572289e-02  1.3532453185981708e-01  1.7581491183827708e-01  2.1460709604412978e-01  2.5212181226618929e-01  2.8880859536369652e-01  3.2515760634274815e-01  3.6171253643665280e-01  3.9908430465972811e-01  4.3796771321600930e-01  4.7916386981911502e-01  5.2361152804758493e-01  5.7243121107671757e-01  6.2698715595308496e-01  6.8897407862528637e-01  7.6053898484333071e-01  8.4445327095765998e-01  9.4435819713188640e-01  1.0651191942061045e+00  1.2133445286907869e+00  1.3981576864313769e+00  1.6323726749148815e+00  1.9343345181901466e+00  2.3309162529338248e+00  2.8626579720301573e+00  3.5933186897084139e+00  4.6289855653806491e+00  6.1646963677587703e+00  8.5163046100432869e+00  0.0000000000000000e+00  9.1979956733794721e-02  1.7345959526430044e-01  2.4128413468672094e-01  2.9458750260586147e-01  3.3385493436770836e-01  3.6047339242162835e-01  3.7631383378442129e-01  3.8340561032368314e-01  3.8371258830853905e-01  3.7900008794879397e-01  3.7077576461422812e-01  3.6028313322388561e-01  3.4852939451685139e-01  3.3633458836022317e-01  3.2439528031741482e-01  3.1336268466592709e-01  3.0394245069432191e-01  2.9703271991176156e-01  2.9393121082311163e-01  2.9666563794010231e-01  3.0854301101999476e-01  3.3508738805694321e-01  3.8567230446588346e-01  4.7641517150231955e-01  6.3543257028808142e-01  9.1276147761728932e-01  1.4001253030618890e+00  2.2756158037223631e+00  3.9166021889553986e+00  7.4010156166937415e+00  0.0000000000000000e+00  1.3111088260845077e-01  2.3605056731988067e-01  3.0591238745786276e-01  3.4048972794270282e-01  3.4509148422580460e-01  3.2755903114136647e-01  2.9595273299215458e-01  2.5719333821465656e-01  2.1651401240043094e-01  1.7745308315103611e-01  1.4212566574238045e-01  1.1158369812631000e-01  8.6156466155610845e-02  6.5724781412247010e-02  4.9920026992520725e-02  3.8258401133087032e-02  3.0228404674178144e-02  2.5353139696289061e-02  2.3254357462646594e-02  2.3759668997417688e-02  2.7130289125330304e-02  3.4569156181908367e-02  4.9349545019901388e-02  7.9293236825298249e-02  1.4216579010867550e-01  2.7740715388427695e-01  5.7249266005657951e-01  1.2242124678032822e+00  2.7149961478478031e+00  6.3990315564337434e+00  0.0000000000000000e+00  1.6401350688616723e-01  2.7917211175961071e-01  3.3166633511475729e-01  3.2885815311595440e-01  2.8899406636100716e-01  2.3168609908020465e-01  1.7232892576510445e-01  1.2038332477543062e-01  8.0065807542807954e-02  5.1976973571613190e-02  3.4718776561915424e-02  2.6095937627829364e-02  2.3846863375012985e-02  2.6002857982197720e-02  3.1006696153921730e-02  3.7697906507625438e-02  4.5235643320696003e-02  5.2999205578890339e-02  6.0486287593086524e-02  6.7220988473901233e-02  7.2691487855120626e-02  7.6379373535099368e-02  7.8078713455165594e-02  7.9086038646288784e-02  8.5858856869178310e-02  1.2034978556497607e-01  2.4742574366049611e-01  6.5038236960448670e-01  1.8405668474896875e+00  5.5024054307681691e+00  0.0000000000000000e+00  1.9035196554987641e-01  3.0475265484928682e-01  3.2857399080759359e-01  2.8541294959186986e-01  2.1189985871716080e-01  1.3818451766321480e-01  8.0698508055687623e-02  4.3773215582917357e-02  2.4594121001636285e-02  1.7754524002559568e-02  1.8048102267945471e-02  2.1626669304671595e-02  2.6144533770059819e-02  3.0456821296030532e-02  3.4220031849006856e-02  3.7549461577173891e-02  4.0772157649334312e-02  4.4260691089108614e-02  4.8316531216647363e-02  5.3072317966377895e-02  5.8388657661205663e-02  6.3731723431926721e-02  6.8054175812548537e-02  6.9898762272849108e-02  6.8747568881780172e-02  7.1360024262099434e-02  1.1553406098748040e-01  3.4561166581862041e-01  1.2683740613355714e+00  4.7034792229653553e+00  0.0000000000000000e+00  2.1032104588251135e-01  3.1637454147675065e-01  3.0813894866183883e-01  2.3194162440237573e-01  1.4238025206357094e-01  7.2969627477193932e-02  3.2720462638272413e-02  1.5920046021264712e-02  1.2670033282735617e-02  1.4886825062557969e-02  1.7962946710073459e-02  2.0142419873857096e-02  2.1312884492641130e-02  2.2034009828335466e-02  2.2985170347614652e-02  2.4739569495131335e-02  2.7719972641170730e-02  3.2222582360426584e-02  3.8438194952859508e-02  4.6429963052388397e-02  5.6046285591853130e-02  6.6759179507126218e-02  7.7420338746343811e-02  8.5910519178897790e-02  8.8932096701195881e-02  8.4198672375198153e-02  8.5618733944374595e-02  1.9411174752641955e-01  8.5980836437017372e-01  3.9948838980570973e+00  0.0000000000000000e+00  2.2447351373289065e-01  3.1799806940521957e-01  2.7990544139895202e-01  1.8164485280299728e-01  9.0679680870090068e-02  3.5634888044037603e-02  1.3414814937541262e-02  9.4596112034984452e-03  1.1508662598162448e-02  1.3481014651792030e-02  1.3905078028106999e-02  1.3323882035673390e-02  1.2613215582410039e-02  1.2354770668150283e-02  1.2806881293038735e-02  1.4071564859650451e-02  1.6258427662937652e-02  1.9584641527106400e-02  2.4404006168358795e-02  3.1159775698572312e-02  4.0241304185348645e-02  5.1725112166951581e-02  6.5004401231946465e-02  7.8332829310367127e-02  8.8140478339630388e-02  8.8549615206416646e-02  7.8368066264258920e-02  1.1446480579945158e-01  5.7893108448516983e-01  3.3695394028386492e+00  0.0000000000000000e+00  2.3355462905903820e-01  3.1318747240455891e-01  2.5040221976625227e-01  1.4026744719719039e-01  5.6394568643737819e-02  1.7032920660237209e-02  7.3129579084200329e-03  8.3796060730673919e-03  1.0013183330139111e-02  9.7856579432249353e-03  8.4991855658358550e-03  7.2042362033278061e-03  6.3541854739499748e-03  5.9838159909766462e-03  6.0370904423563522e-03  6.5515731904014643e-03  7.7170777842574811e-03  9.8886411449893765e-03  1.3596737719002527e-02  1.9541574073854064e-02  2.8506634800812600e-02  4.1091245004488505e-02  5.7205368715768923e-02  7.5384552689564926e-02  9.2096326652598287e-02  1.0049803037213044e-01  9.1086980656343033e-02  8.6897165932225351e-02  3.8714473620685946e-01  2.8206546658687293e+00  0.0000000000000000e+00  2.3836969671766081e-01  3.0477458617466846e-01  2.2342900659288056e-01  1.0893341048835185e-01  3.5277964488088939e-02  8.6418000945300017e-03  5.6623431325299334e-03  7.4314779675702866e-03  7.4688079664870944e-03  6.0526779073250409e-03  4.5392672328084787e-03  3.4689463805372012e-03  2.7974557386379723e-03  2.3943342372829521e-03  2.2287051052047222e-03  2.3595695644381487e-03  2.9133665292054188e-03  4.1199508019241476e-03  6.4037907635186297e-03  1.0492412003367460e-02  1.7458485555108351e-02  2.8543001157470490e-02  4.4549781499431715e-02  6.4815241772299984e-02  8.6053578639143993e-02  1.0146253699668344e-01  9.8398732167812308e-02  7.6150753185142722e-02  2.5322118667220372e-01  2.3417275974695038e+00  0.0000000000000000e+00  2.3969273294543839e-01  2.9480881606024179e-01  2.0081300527796253e-01  8.6591988572621598e-02  2.2895582254209620e-02  5.0426851018028395e-03  4.9680629506262744e-03  6.0124134314451958e-03  5.0162684499615497e-03  3.4361696204902544e-03  2.2589455944722423e-03  1.5203025909474885e-03  1.0405206561515149e-03  7.4137516432364037e-04  6.0833629811238060e-04  6.3602419428015935e-04  8.5166449404584592e-04  1.3874252253791989e-03  2.5875075987627566e-03  5.1576973821677394e-03  1.0319559690563564e-02  1.9793272180565990e-02  3.5292373305690142e-02  5.7151646781436173e-02  8.2600564477465180e-02  1.0438672430219870e-01  1.0939722890651228e-01  8.1472584320906705e-02  1.6901721818999949e-01  1.9265450897266101e+00  0.0000000000000000e+00  2.3821452855091191e-01  2.8465173101489816e-01  1.8315698879238507e-01  7.1539251526559780e-02  1.5905613563295874e-02  3.4355512561582008e-03  4.2850564558583716e-03  4.5500933955368210e-03  3.2121600495071249e-03  1.8971319221529697e-03  1.0897450734045177e-03  6.0892306375072717e-04  3.1445171246162132e-04  1.6178078925708776e-04  1.0659845861676697e-04  1.0602211060300307e-04  1.5742287330936333e-04  3.3211439416576985e-04  8.4627780424680727e-04  2.2325992652206636e-03  5.6167470885745809e-03  1.2938973765861997e-02  2.6650741961765319e-02  4.8362896386588215e-02  7.6106244570787143e-02  1.0268614365140108e-01  1.1408993405373610e-01  8.8430792663478613e-02  1.1087416117685098e-01  1.5691830164891336e+00  0.0000000000000000e+00  2.3451789936712925e-01  2.7512126987990732e-01  1.7040137952668571e-01  6.2169283175101682e-02  1.2168478310736678e-02  2.5839723877638999e-03  3.5358099445972186e-03  3.3494482825182316e-03  2.0598210345199311e-03  1.0680741189975952e-03  5.2985646088832305e-04  2.2916387386653751e-04  7.3768095195742066e-05  1.7266412174844521e-05  3.8683572713520877e-06  -1.4543297627847047e-07  2.8720730423642346e-06  3.8267814876400831e-05  2.1074801744629907e-04  8.8053647627767432e-04  3.0159895255336133e-03  8.6070856519774967e-03  2.0679788620597290e-02  4.1927200013210382e-02  7.1729547720269946e-02  1.0238132786379406e-01  1.2010789402257051e-01  9.8704974292676800e-02  7.9648903218452707e-02  1.2640062333696283e+00  0.0000000000000000e+00  2.2907514354552783e-01  2.6663261978482328e-01  1.6218530076001650e-01  5.7253645517371492e-02  1.0475284924729239e-02  2.0243932566719460e-03  2.8075454055021959e-03  2.4785629944508139e-03  1.3780575092441768e-03  6.4003789159935650e-04  2.7479454717065858e-04  8.8841499544663771e-05  1.2189427625538969e-05  -3.6846434135942039e-06  -3.8646688776682523e-06  -4.9106698264464709e-06  -8.0731998267669537e-06  -1.2786994563266064e-05  1.6685802868784903e-05  2.9685692519487012e-04  1.5915885326286867e-03  5.8027795444051027e-03  1.6239346298603470e-02  3.6594276901971236e-02  6.7264888456015581e-02  1.0119171023636878e-01  1.2263956284861031e-01  1.0733170222952024e-01  5.9470376335756116e-02  1.0056685777441008e+00  0.0000000000000000e+00  2.2225283573987537e-01  2.5931361835401573e-01  1.5804648134728741e-01  5.5986009020398762e-02  1.0253410822789378e-02  1.6349302949505730e-03  2.1534090763798003e-03  1.8829159265999992e-03  9.9294445970579161e-04  4.2458089151172043e-04  1.6340247207803114e-04  4.3124874108579473e-05  1.5336346107242354e-06  -3.0430645858353010e-06  -1.1851230288317830e-06  -4.7730411703425621e-07  -1.2543606471743722e-06  -9.2842456087961689e-06  -2.2736300029908318e-05  7.5522404013895607e-05  8.8786169489104758e-04  4.1895506599927881e-03  1.3518943150708569e-02  3.3176570045172674e-02  6.4807926404460273e-02  1.0122436506028275e-01  1.2638079817756975e-01  1.1534949770797326e-01  5.2689345219899202e-02  7.8911286875201914e-01  0.0000000000000000e+00  2.1432648121259373e-01  2.5309148010335514e-01  1.5751335871838512e-01  5.7932146922558637e-02  1.1360788955832351e-02  1.4542402290651294e-03  1.5782423372102305e-03  1.4734738350791023e-03  7.8498189363599455e-04  3.2183837026833158e-04  1.1771588731914902e-04  3.1565398017596563e-05  2.5975209777391530e-06  -1.3043729212387768e-06  -3.9863143140949280e-07  3.4494728784318581e-07  1.5171574268712517e-06  -2.3977031865536642e-06  -2.5339418846515077e-05  -6.3721322976593407e-06  5.4937157958379393e-04  3.3509401777447926e-03  1.2011940715483045e-02  3.1392365069118050e-02  6.3549717227835409e-02  1.0208890368424697e-01  1.2880207986074899e-01  1.2163257831649371e-01  4.9787738530635624e-02  6.0957090729630992e-01  0.0000000000000000e+00  2.0549304732664100e-01  2.4774898701068859e-01  1.6012609759886420e-01  6.2947555870876054e-02  1.3974755762626474e-02  1.6430027078599490e-03  1.0755192481676100e-03  1.1611148975658068e-03  6.7838039532623130e-04  2.8392640496336866e-04  1.0380265649778999e-04  3.2398878483304009e-05  6.9511712389565946e-06  7.9571832173157985e-07  -8.5986719283990851e-08  8.6584418711006865e-08  2.4073895414663091e-06  1.2097244912566017e-06  -2.4895163510046185e-05  -3.8787920753721199e-05  4.3209677902166671e-04  3.0954755023558191e-03  1.1726702653592550e-02  3.1338971215048965e-02  6.4432924728548419e-02  1.0425455485918701e-01  1.3232456588038966e-01  1.2651344273140147e-01  5.2463558559681010e-02  4.6256347604335885e-01  0.0000000000000000e+00  1.9588426869558057e-01  2.4296592115946572e-01  1.6541616344129059e-01  7.1089526609209835e-02  1.8547132760946005e-02  2.5300613180533420e-03  6.8694741184402149e-04  8.6644097934641820e-04  6.1478899589594005e-04  2.8853265886100783e-04  1.1137039858318397e-04  3.9538315399859706e-05  1.2901619103764325e-05  3.8389852187531626e-06  9.7126506503811260e-07  9.4945672004802401e-07  4.4300398278394618e-06  1.8978480494865397e-06  -3.3152230561380396e-05  -5.1053953053944466e-05  4.7828372705217376e-04  3.4112685275520791e-03  1.2617151518140888e-02  3.3218985892422184e-02  6.7235676511376338e-02  1.0796656118447583e-01  1.3560654075426362e-01  1.3008218699102500e-01  5.5604781710088209e-02  3.4390033942301057e-01  0.0000000000000000e+00  1.8558402589516082e-01  2.3833547108601844e-01  1.7285967895897336e-01  8.2508084970056725e-02  2.5786783347561751e-02  4.7114578295880541e-03  6.0525152570009056e-04  5.4500053788344559e-04  5.2759637774671137e-04  3.1267485339939941e-04  1.4153657709444148e-04  5.7174004135007934e-05  2.2600515916286987e-05  9.1734372628371294e-06  4.7518820156283026e-06  5.4523695569836727e-06  8.1769957816087487e-06  -5.0591500764751562e-06  -5.5847096697858910e-05  -3.3555103689859033e-05  7.7192032609269380e-04  4.4496191358488688e-03  1.5030035539650552e-02  3.7252804955157495e-02  7.2527616588935320e-02  1.1314892089362574e-01  1.3960886385498728e-01  1.3227186454832729e-01  6.0055626375319443e-02  2.4968024362856858e-01  0.0000000000000000e+00  1.7462587949280189e-01  2.3338606611727802e-01  1.8181189692104266e-01  9.7320563104148480e-02  3.6623732611505228e-02  9.1853994578152947e-03  1.3585637781464541e-03  2.9114230113754571e-04  3.4831969290484362e-04  2.9946825662414788e-04  1.8097372563937174e-04  9.2509596248764342e-05  4.5717598620877602e-05  2.4612604153354905e-05  1.6894230211788598e-05  1.4220766165539504e-05  4.6476269125081075e-06  -3.4163924063890380e-05  -8.4756966356795433e-05  1.1546816527580490e-04  1.5682014613598912e-03  6.6930249195495256e-03  1.9473523858475984e-02  4.4020836936423974e-02  8.0336162721267840e-02  1.1997892212380859e-01  1.4350555660440970e-01  1.3329846833572742e-01  6.3398505418528914e-02  1.7629091661679558e-01  0.0000000000000000e+00  1.6302822430017710e-01  2.2758051042890415e-01  1.9144338343067341e-01  1.1542619091903666e-01  5.2090390106033869e-02  1.7456827640464401e-02  4.0937873194498292e-03  6.1039659835253053e-04  1.4369623382354515e-04  1.6829782045584251e-04  1.5779259966408428e-04  1.1210133942605729e-04  7.0897556155232215e-05  4.3832328617500524e-05  2.5430664205583006e-05  3.7086261504157646e-06  -3.5243747805556290e-05  -8.4167559780354349e-05  -5.2849190207646471e-06  7.3058189336663263e-04  3.5159629055820413e-03  1.1005874022524469e-02  2.6902084025756955e-02  5.4066753140743967e-02  9.0971283308532269e-02  1.2807050381997123e-01  1.4734067077165511e-01  1.3289082398827526e-01  6.5943370730257120e-02  1.2040906810791313e-01  0.0000000000000000e+00  1.5075426681585796e-01  2.2033516004115081e-01  2.0066104360869827e-01  1.3628818969853118e-01  7.3054208184311312e-02  3.1507787251286640e-02  1.0899127293331003e-02  2.9389309429432506e-03  5.7672941729565972e-04  7.8895961369228700e-05  2.4494750848066918e-05  2.5216101424158254e-05  1.6085023231924972e-05  -3.0669952846439800e-06  -3.0079493705819185e-05  -6.2783161926443728e-05  -7.3980579022934668e-05  5.6591188545027810e-05  7.0048759575716795e-04  2.7472749719374061e-03  7.9242527785575324e-03  1.8877843051557371e-02  3.8500887598146669e-02  6.8067104543656567e-02  1.0424127234697605e-01  1.3705262070369892e-01  1.5031791769692593e-01  1.3102590931967859e-01  6.6737038178125305e-02  7.9000389585601807e-02  0.0000000000000000e+00  1.3779470427571935e-01  2.1102643501950885e-01  2.0808153742294982e-01  1.5865707576022103e-01  9.9726995914676736e-02  5.3405124351898210e-02  2.4894291035423902e-02  1.0280670807749392e-02  3.8317227571873559e-03  1.3190574474183589e-03  4.3117666060931337e-04  1.3624806083727364e-04  4.1220550393191643e-05  1.8620357554823834e-05  4.7151600141212133e-05  1.7220356102178302e-04  5.3677020358781327e-04  1.4722191862174693e-03  3.6521900564190960e-03  8.2665537972087238e-03  1.7118209128950797e-02  3.2350032112911618e-02  5.5594157225211369e-02  8.6255269019286471e-02  1.1963809518695755e-01  1.4592444177540162e-01  1.5182333490363331e-01  1.2731777766363148e-01  6.5882530489661195e-02  4.9319554297001231e-02  0.0000000000000000e+00  1.2405174154666319e-01  1.9900487584736914e-01  2.1198210184274652e-01  1.8031489091384154e-01  1.3095812791900466e-01  8.4353210815049956e-02  4.9604875632751316e-02  2.7383328515142899e-02  1.4641918150169372e-02  7.8794898135337629e-03  4.4743562889254422e-03  2.8329536730196314e-03  2.1139895792399248e-03  1.9348927417180716e-03  2.1859446390729673e-03  2.9533091399413921e-03  4.5217215105315574e-03  7.4285889022106021e-03  1.2532689384429594e-02  2.1033777324587662e-02  3.4332551894185923e-02  5.3589046788834672e-02  7.8881799908694650e-02  1.0805538204478153e-01  1.3573250243988264e-01  1.5332332184062966e-01  1.5081769248469437e-01  1.2149444245926497e-01  6.3127213270173149e-02  2.8910217252709904e-02  0.0000000000000000e+00  1.0952064361267910e-01  1.8365243087063582e-01  2.1041481999876649e-01  1.9792744862806599e-01  1.6343366167586451e-01  1.2306923299905684e-01  8.6981558397842801e-02  5.9228264313837556e-02  3.9896941596021598e-02  2.7335213595538952e-02  1.9600830126281839e-02  1.5113292186309118e-02  1.2809010205307258e-02  1.2086134076760400e-02  1.2706225027171602e-02  1.4720294101484885e-02  1.8428381145851765e-02  2.4354057740534726e-02  3.3197873268199542e-02  4.5716666225502085e-02  6.2478637312551669e-02  8.3431501514211956e-02  1.0735065495028120e-01  1.3122602863996230e-01  1.5006113302146809e-01  1.5724696711825384e-01  1.4622947681158036e-01  1.1313617266961214e-01  5.8561023143512803e-02  1.5605015226785519e-02  0.0000000000000000e+00  9.4033711073276682e-02  1.6434761055750843e-01  2.0123950530710458e-01  2.0708490366856655e-01  1.9109987194799777e-01  1.6391082904518689e-01  1.3405590655568564e-01  1.0680427269887145e-01  8.4527072765066880e-02  6.7677640222593746e-02  5.5742145627906810e-02  4.7901925765111139e-02  4.3396359222993237e-02  4.1674586023782975e-02  4.2428652810123209e-02  4.5571123986611076e-02  5.1185633754619937e-02  5.9455656197506167e-02  7.0559742095707589e-02  8.4521155589540958e-02  1.0099569631710255e-01  1.1901889982316903e-01  1.3674797743433259e-01  1.5130870977336766e-01  1.5890876385266814e-01  1.5530046816598458e-01  1.3686963413636541e-01  1.0190413958027790e-01  5.2227524699556153e-02  7.5255667567445603e-03  0.0000000000000000e+00  7.7625517825044177e-02  1.4067183809065245e-01  1.8254846782949294e-01  2.0287414476469492e-01  2.0543720814630453e-01  1.9580957653590417e-01  1.7949227737326315e-01  1.6087669687528183e-01  1.4293466803460683e-01  1.2736734222476354e-01  1.1494708801044257e-01  1.0587163673912577e-01  1.0004277204481925e-01  9.7248477246049028e-02  9.7259817194494155e-02  9.9864558135250830e-02  1.0485564217522639e-01  1.1198744699654185e-01  1.2090764199964356e-01  1.3106948565463794e-01  1.4163793184707957e-01  1.5140037