<?xml version="1.0"?>
<VTKFile type="UnstructuredGrid"  version="0.1"  >
<UnstructuredGrid>
<Piece  NumberOfPoints="961" NumberOfCells="1800">
<Points>
<DataArray  type="Float64"  NumberOfComponents="3"  format="ascii">-1 -1 0  -0.9333333333333333 -1 0  -0.8666666666666667 -1 0  -0.8 -1 0  -0.7333333333333334 -1 0  -0.6666666666666667 -1 0  -0.6 -1 0  -0.5333333333333333 -1 0  -0.4666666666666667 -1 0  -0.4 -1 0  -0.3333333333333334 -1 0  -0.2666666666666667 -1 0  -0.2 -1 0  -0.1333333333333333 -1 0  -0.06666666666666665 -1 0  0 -1 0  0.06666666666666665 -1 0  0.1333333333333333 -1 0  0.2 -1 0  0.2666666666666666 -1 0  0.3333333333333333 -1 0  0.3999999999999999 -1 0  0.4666666666666666 -1 0  0.5333333333333334 -1 0  0.6000000000000001 -1 0  0.6666666666666667 -1 0  0.7333333333333334 -1 0  0.8 -1 0  0.8666666666666667 -1 0  0.9333333333333333 -1 0  1 -1 0  -1 -0.9333333333333333 0  -0.9333333333333333 -0.9333333333333333 0  -0.8666666666666667 -0.9333333333333333 0  -0.8 -0.9333333333333333 0  -0.7333333333333334 -0.9333333333333333 0  -0.6666666666666667 -0.9333333333333333 0  -0.6 -0.9333333333333333 0  -0.5333333333333333 -0.9333333333333333 0  -0.4666666666666667 -0.9333333333333333 0  -0.4 -0.9333333333333333 0  -0.3333333333333334 -0.9333333333333333 0  -0.2666666666666667 -0.9333333333333333 0  -0.2 -0.9333333333333333 0  -0.1333333333333333 -0.9333333333333333 0  -0.06666666666666665 -0.9333333333333333 0  0 -0.9333333333333333 0  0.06666666666666665 -0.9333333333333333 0  0.1333333333333333 -0.9333333333333333 0  0.2 -0.9333333333333333 0  0.2666666666666666 -0.9333333333333333 0  0.3333333333333333 -0.9333333333333333 0  0.3999999999999999 -0.9333333333333333 0  0.4666666666666666 -0.9333333333333333 0  0.5333333333333334 -0.9333333333333333 0  0.6000000000000001 -0.9333333333333333 0  0.6666666666666667 -0.9333333333333333 0  0.7333333333333334 -0.9333333333333333 0  0.8 -0.9333333333333333 0  0.8666666666666667 -0.9333333333333333 0  0.9333333333333333 -0.9333333333333333 0  1 -0.9333333333333333 0  -1 -0.8666666666666667 0  -0.9333333333333333 -0.8666666666666667 0  -0.8666666666666667 -0.8666666666666667 0  -0.8 -0.8666666666666667 0  -0.7333333333333334 -0.8666666666666667 0  -0.6666666666666667 -0.8666666666666667 0  -0.6 -0.8666666666666667 0  -0.5333333333333333 -0.8666666666666667 0  -0.4666666666666667 -0.8666666666666667 0  -0.4 -0.8666666666666667 0  -0.3333333333333334 -0.8666666666666667 0  -0.2666666666666667 -0.8666666666666667 0  -0.2 -0.8666666666666667 0  -0.1333333333333333 -0.8666666666666667 0  -0.06666666666666665 -0.8666666666666667 0  0 -0.8666666666666667 0  0.06666666666666665 -0.8666666666666667 0  0.1333333333333333 -0.8666666666666667 0  0.2 -0.8666666666666667 0  0.2666666666666666 -0.8666666666666667 0  0.3333333333333333 -0.8666666666666667 0  0.3999999999999999 -0.8666666666666667 0  0.4666666666666666 -0.8666666666666667 0  0.5333333333333334 -0.8666666666666667 0  0.6000000000000001 -0.8666666666666667 0  0.6666666666666667 -0.8666666666666667 0  0.7333333333333334 -0.8666666666666667 0  0.8 -0.8666666666666667 0  0.8666666666666667 -0.8666666666666667 0  0.9333333333333333 -0.8666666666666667 0  1 -0.8666666666666667 0  -1 -0.8 0  -0.9333333333333333 -0.8 0  -0.8666666666666667 -0.8 0  -0.8 -0.8 0  -0.7333333333333334 -0.8 0  -0.6666666666666667 -0.8 0  -0.6 -0.8 0  -0.5333333333333333 -0.8 0  -0.4666666666666667 -0.8 0  -0.4 -0.8 0  -0.3333333333333334 -0.8 0  -0.2666666666666667 -0.8 0  -0.2 -0.8 0  -0.1333333333333333 -0.8 0  -0.06666666666666665 -0.8 0  0 -0.8 0  0.06666666666666665 -0.8 0  0.1333333333333333 -0.8 0  0.2 -0.8 0  0.2666666666666666 -0.8 0  0.3333333333333333 -0.8 0  0.3999999999999999 -0.8 0  0.4666666666666666 -0.8 0  0.5333333333333334 -0.8 0  0.6000000000000001 -0.8 0  0.6666666666666667 -0.8 0  0.7333333333333334 -0.8 0  0.8 -0.8 0  0.8666666666666667 -0.8 0  0.9333333333333333 -0.8 0  1 -0.8 0  -1 -0.7333333333333334 0  -0.9333333333333333 -0.7333333333333334 0  -0.8666666666666667 -0.7333333333333334 0  -0.8 -0.7333333333333334 0  -0.7333333333333334 -0.7333333333333334 0  -0.6666666666666667 -0.7333333333333334 0  -0.6 -0.7333333333333334 0  -0.5333333333333333 -0.7333333333333334 0  -0.4666666666666667 -0.7333333333333334 0  -0.4 -0.7333333333333334 0  -0.3333333333333334 -0.7333333333333334 0  -0.2666666666666667 -0.7333333333333334 0  -0.2 -0.7333333333333334 0  -0.1333333333333333 -0.7333333333333334 0  -0.06666666666666665 -0.7333333333333334 0  0 -0.7333333333333334 0  0.06666666666666665 -0.7333333333333334 0  0.1333333333333333 -0.7333333333333334 0  0.2 -0.7333333333333334 0  0.2666666666666666 -0.7333333333333334 0  0.3333333333333333 -0.7333333333333334 0  0.3999999999999999 -0.7333333333333334 0  0.4666666666666666 -0.7333333333333334 0  0.5333333333333334 -0.7333333333333334 0  0.6000000000000001 -0.7333333333333334 0  0.6666666666666667 -0.7333333333333334 0  0.7333333333333334 -0.7333333333333334 0  0.8 -0.7333333333333334 0  0.8666666666666667 -0.7333333333333334 0  0.9333333333333333 -0.7333333333333334 0  1 -0.7333333333333334 0  -1 -0.6666666666666667 0  -0.9333333333333333 -0.6666666666666667 0  -0.8666666666666667 -0.6666666666666667 0  -0.8 -0.6666666666666667 0  -0.7333333333333334 -0.6666666666666667 0  -0.6666666666666667 -0.6666666666666667 0  -0.6 -0.6666666666666667 0  -0.5333333333333333 -0.6666666666666667 0  -0.4666666666666667 -0.6666666666666667 0  -0.4 -0.6666666666666667 0  -0.3333333333333334 -0.6666666666666667 0  -0.2666666666666667 -0.6666666666666667 0  -0.2 -0.6666666666666667 0  -0.1333333333333333 -0.6666666666666667 0  -0.06666666666666665 -0.6666666666666667 0  0 -0.6666666666666667 0  0.06666666666666665 -0.6666666666666667 0  0.1333333333333333 -0.6666666666666667 0  0.2 -0.6666666666666667 0  0.2666666666666666 -0.6666666666666667 0  0.3333333333333333 -0.6666666666666667 0  0.3999999999999999 -0.6666666666666667 0  0.4666666666666666 -0.6666666666666667 0  0.5333333333333334 -0.6666666666666667 0  0.6000000000000001 -0.6666666666666667 0  0.6666666666666667 -0.6666666666666667 0  0.7333333333333334 -0.6666666666666667 0  0.8 -0.6666666666666667 0  0.8666666666666667 -0.6666666666666667 0  0.9333333333333333 -0.6666666666666667 0  1 -0.6666666666666667 0  -1 -0.6 0  -0.9333333333333333 -0.6 0  -0.8666666666666667 -0.6 0  -0.8 -0.6 0  -0.7333333333333334 -0.6 0  -0.6666666666666667 -0.6 0  -0.6 -0.6 0  -0.5333333333333333 -0.6 0  -0.4666666666666667 -0.6 0  -0.4 -0.6 0  -0.3333333333333334 -0.6 0  -0.2666666666666667 -0.6 0  -0.2 -0.6 0  -0.1333333333333333 -0.6 0  -0.06666666666666665 -0.6 0  0 -0.6 0  0.06666666666666665 -0.6 0  0.1333333333333333 -0.6 0  0.2 -0.6 0  0.2666666666666666 -0.6 0  0.3333333333333333 -0.6 0  0.3999999999999999 -0.6 0  0.4666666666666666 -0.6 0  0.5333333333333334 -0.6 0  0.6000000000000001 -0.6 0  0.6666666666666667 -0.6 0  0.7333333333333334 -0.6 0  0.8 -0.6 0  0.8666666666666667 -0.6 0  0.9333333333333333 -0.6 0  1 -0.6 0  -1 -0.5333333333333333 0  -0.9333333333333333 -0.5333333333333333 0  -0.8666666666666667 -0.5333333333333333 0  -0.8 -0.5333333333333333 0  -0.7333333333333334 -0.5333333333333333 0  -0.6666666666666667 -0.5333333333333333 0  -0.6 -0.5333333333333333 0  -0.5333333333333333 -0.5333333333333333 0  -0.4666666666666667 -0.5333333333333333 0  -0.4 -0.5333333333333333 0  -0.3333333333333334 -0.5333333333333333 0  -0.2666666666666667 -0.5333333333333333 0  -0.2 -0.5333333333333333 0  -0.1333333333333333 -0.5333333333333333 0  -0.06666666666666665 -0.5333333333333333 0  0 -0.5333333333333333 0  0.06666666666666665 -0.5333333333333333 0  0.1333333333333333 -0.5333333333333333 0  0.2 -0.5333333333333333 0  0.2666666666666666 -0.5333333333333333 0  0.3333333333333333 -0.5333333333333333 0  0.3999999999999999 -0.5333333333333333 0  0.4666666666666666 -0.5333333333333333 0  0.5333333333333334 -0.5333333333333333 0  0.6000000000000001 -0.5333333333333333 0  0.6666666666666667 -0.5333333333333333 0  0.7333333333333334 -0.5333333333333333 0  0.8 -0.5333333333333333 0  0.8666666666666667 -0.5333333333333333 0  0.9333333333333333 -0.5333333333333333 0  1 -0.5333333333333333 0  -1 -0.4666666666666667 0  -0.9333333333333333 -0.4666666666666667 0  -0.8666666666666667 -0.4666666666666667 0  -0.8 -0.4666666666666667 0  -0.7333333333333334 -0.4666666666666667 0  -0.6666666666666667 -0.4666666666666667 0  -0.6 -0.4666666666666667 0  -0.5333333333333333 -0.4666666666666667 0  -0.4666666666666667 -0.4666666666666667 0  -0.4 -0.4666666666666667 0  -0.3333333333333334 -0.4666666666666667 0  -0.2666666666666667 -0.4666666666666667 0  -0.2 -0.4666666666666667 0  -0.1333333333333333 -0.4666666666666667 0  -0.06666666666666665 -0.4666666666666667 0  0 -0.4666666666666667 0  0.06666666666666665 -0.4666666666666667 0  0.1333333333333333 -0.4666666666666667 0  0.2 -0.4666666666666667 0  0.2666666666666666 -0.4666666666666667 0  0.3333333333333333 -0.4666666666666667 0  0.3999999999999999 -0.4666666666666667 0  0.4666666666666666 -0.4666666666666667 0  0.5333333333333334 -0.4666666666666667 0  0.6000000000000001 -0.4666666666666667 0  0.6666666666666667 -0.4666666666666667 0  0.7333333333333334 -0.4666666666666667 0  0.8 -0.4666666666666667 0  0.8666666666666667 -0.4666666666666667 0  0.9333333333333333 -0.4666666666666667 0  1 -0.4666666666666667 0  -1 -0.4 0  -0.9333333333333333 -0.4 0  -0.8666666666666667 -0.4 0  -0.8 -0.4 0  -0.7333333333333334 -0.4 0  -0.6666666666666667 -0.4 0  -0.6 -0.4 0  -0.5333333333333333 -0.4 0  -0.4666666666666667 -0.4 0  -0.4 -0.4 0  -0.3333333333333334 -0.4 0  -0.2666666666666667 -0.4 0  -0.2 -0.4 0  -0.1333333333333333 -0.4 0  -0.06666666666666665 -0.4 0  0 -0.4 0  0.06666666666666665 -0.4 0  0.1333333333333333 -0.4 0  0.2 -0.4 0  0.2666666666666666 -0.4 0  0.3333333333333333 -0.4 0  0.3999999999999999 -0.4 0  0.4666666666666666 -0.4 0  0.5333333333333334 -0.4 0  0.6000000000000001 -0.4 0  0.6666666666666667 -0.4 0  0.7333333333333334 -0.4 0 
[...]
<PointData  Scalars="f_24"> 
<DataArray  type="Float64"  Name="f_24"  format="ascii">0.0000000000000000e+00  0.0000000000000000e+00  0.0000000000000000e+00  0.0000000000000000e+00  0.0000000000000000e+00  0.0000000000000000e+00  0.0000000000000000e+00  0.0000000000000000e+00  0.0000000000000000e+00  0.0000000000000000e+00  0.0000000000000000e+00  0.0000000000000000e+00  0.0000000000000000e+00  0.0000000000000000e+00  0.0000000000000000e+00  0.0000000000000000e+00  0.0000000000000000e+00  0.0000000000000000e+00  0.0000000000000000e+00  0.0000000000000000e+00  0.0000000000000000e+00  0.0000000000000000e+00  0.0000000000000000e+00  0.0000000000000000e+00  0.0000000000000000e+00  0.0000000000000000e+00  0.0000000000000000e+00  0.0000000000000000e+00  0.0000000000000000e+00  0.0000000000000000e+00  1.4261858302509301e+01  0.0000000000000000e+00  3.0286315252076463e-04  2.3949590844462867e-03  7.8412448062272037e-03  1.7870850314323349e-02  3.3278437887720023e-02  5.4553735810676421e-02  8.2002026877673495e-02  1.1584262510522308e-01  1.5628957808981622e-01  2.0361965010833882e-01  2.5823297716620547e-01  3.2071180144624156e-01  3.9188317187191829e-01  4.7289257319578382e-01  5.6529723317407732e-01  6.7119073273327534e-01  7.9337509683669216e-01  9.3560370929563252e-01  1.1029297017874478e+00  1.3022125025980336e+00  1.5428646302861966e+00  1.8379704964034764e+00  2.2059967543325758e+00  2.6734801240871802e+00  3.2794106654446562e+00  4.0827701669552869e+00  5.1764940831205948e+00  6.7156537563345751e+00  8.9852501932257258e+00  1.2453260990193927e+01  0.0000000000000000e+00  5.8406094786746937e-04  3.9637880462670737e-03  1.2144435820078313e-02  2.5910441316686374e-02  4.4816940395747330e-02  6.7684693277109881e-02  9.3024695622530920e-02  1.1934725598001986e-01  1.4535056756532558e-01  1.7001286737872728e-01  1.9261896920616436e-01  2.1274926414151327e-01  2.3025397507638126e-01  2.4522999063554202e-01  2.5801395321173404e-01  2.6920460402069007e-01  2.7973071281964307e-01  2.9098995120864479e-01  3.0510205271359425e-01  3.2535272711813756e-01  3.5696467222367595e-01  4.0844045243972937e-01  4.9392263101633271e-01  6.3739812906291493e-01  8.8035974886725543e-01  1.2962672049607746e+00  2.0195014597800331e+00  3.3103601149986570e+00  5.7213404512717760e+00  1.0822391082453281e+01  0.0000000000000000e+00  7.6238322816788644e-04  4.5389506117881010e-03  1.2757547334306405e-02  2.4736365192640636e-02  3.8282747978639231e-02  5.0878864054692267e-02  6.0472953928935924e-02  6.5835239787397332e-02  6.6571665589900783e-02  6.2952229947082300e-02  5.5678891131017157e-02  4.5670066275097482e-02  3.3896528753439827e-02  2.1275372861596441e-02  8.6147242869011580e-03  -3.4020224432937682e-03  -1.4201011701582514e-02  -2.3272719799387061e-02  -3.0083471338061774e-02  -3.3902805610646645e-02  -3.3448149904852245e-02  -2.6123930670268046e-02  -6.3659586094715502e-03  3.7972332464279328e-02  1.3347090656939903e-01  3.3828921636547016e-01  7.8051509287087617e-01  1.7482763604818961e+00  3.9453875073069371e+00  9.3572052322763533e+00  0.0000000000000000e+00  8.2955176775884379e-04  4.3487106210384693e-03  1.1045410115205647e-02  1.9012280360649000e-02  2.5457726315407464e-02  2.8386101738241399e-02  2.7224626243573927e-02  2.2641240774087565e-02  1.5988999123292939e-02  8.7541738069732318e-03  2.1822773997610080e-03  -2.8916591577907011e-03  -6.0587448972155445e-03  -7.2656740800479645e-03  -6.7132937815083307e-03  -4.7589341535210251e-03  -1.8392044570526122e-03  1.5818255011008303e-03  5.0409287801684898e-03  8.0886319079569915e-03  1.0311943807650105e-02  1.1451947770104703e-02  1.1896763286167631e-02  1.4384663603405920e-02  2.9269709631189366e-02  8.9414365402421994e-02  2.9034558990673759e-01  8.9963452178340331e-01  2.6662516855411336e+00  8.0460826662314702e+00  0.0000000000000000e+00  8.0591667812477676e-04  3.7260072097541966e-03  8.4663033853607551e-03  1.2694199238881944e-02  1.4223912408851305e-02  1.2528605105172501e-02  8.6041652907876028e-03  4.0634765896632964e-03  2.8335721047852814e-04  -2.0087993729556567e-03  -2.7407773931699387e-03  -2.2813070542087059e-03  -1.1835421323617783e-03  1.4057660186234735e-05  9.0084537704289034e-04  1.2332437582432635e-03  9.2598771836244730e-04  1.9107574525295938e-05  -1.3640843853033773e-03  -3.0633763171414837e-03  -4.9406684553201085e-03  -6.9719258165761560e-03  -9.3705665490404662e-03  -1.2470724037291669e-02  -1.4968416680034994e-02  -4.9142617486734579e-03  7.4202948113903905e-02  4.3462906864534367e-01  1.8145744909258341e+00  6.8778251844662925e+00  0.0000000000000000e+00  7.2248184134528746e-04  2.9532123375790530e-03  5.9673679274786827e-03  7.6723396170142134e-03  6.9292870197766527e-03  4.3733992568101600e-03  1.4910571193564024e-03  -5.2445975787757104e-04  -1.2849955273459474e-03  -1.0708076412718143e-03  -4.3166005639843133e-04  1.5357480450759687e-04  4.3424197480177888e-04  3.8795853038286370e-04  1.4081302101516017e-04  -1.2575977759927693e-04  -2.4587899556268529e-04  -1.0834338294597036e-04  3.3158230591061083e-04  1.0587455292917071e-03  2.0127056231489860e-03  3.0868432515325376e-03  4.0428015346526402e-03  4.1642062803490983e-03  1.8762678166976559e-03  -2.7519355928148593e-03  1.3707789731008085e-02  1.9910371094702262e-01  1.2125279125893706e+00  5.8416571607078112e+00  0.0000000000000000e+00  6.0925098992389577e-04  2.2100717658097568e-03  3.9611599230461704e-03  4.3094075838989382e-03  2.9887385963560877e-03  1.0746909748203175e-03  -2.8588444822813476e-04  -6.9891053786233764e-04  -4.5778890370993229e-04  -5.8506807881845167e-05  1.7361581363127174e-04  1.7622963499038113e-04  5.2685292157486363e-05  -6.3962605865825888e-05  -9.7399452586138495e-05  -4.9262104418776262e-05  2.2167350522411711e-05  3.7491125868782794e-05  -7.2723394020004207e-05  -3.4832387450268266e-04  -7.8933625702155526e-04  -1.3430521228575314e-03  -1.8958658808096963e-03  -2.3720888953394294e-03  -3.5772155468234315e-03  -8.3516702182004753e-03  -1.3577675715612345e-02  6.7357729981137010e-02  7.8984397458866962e-01  4.9272255422623514e+00  0.0000000000000000e+00  4.8929893585622215e-04  1.5828693563562444e-03  2.5173681352850192e-03  2.2913158434660686e-03  1.1337925916448098e-03  4.0284952785004867e-05  -3.9149340044349984e-04  -2.7649594085743794e-04  -2.4516621336743426e-05  9.7633601596987645e-05  7.0418718219742024e-05  -3.2229144125758527e-06  -3.9063477204584064e-05  -2.3369797761473546e-05  1.0481389342337709e-05  2.6768924456416066e-05  1.6232986381654818e-05  2.9965402379402641e-07  1.8822602070393710e-05  1.1247384509097434e-04  3.0730859007418451e-04  6.0345715966811798e-04  1.0028329589206301e-03  1.5600132233788277e-03  2.2953117071255026e-03  9.0016089046820102e-04  -7.9616620992256065e-03  1.3455964732403637e-02  5.0303972277683107e-01  4.1245998500155805e+00  0.0000000000000000e+00  3.7737228724450965e-04  1.0949888404555024e-03  1.5498117428938377e-03  1.1693684790677341e-03  3.5966511767293678e-04  -1.6391705987988615e-04  -2.1151293604842241e-04  -5.1430371128078892e-05  4.9394766244571470e-05  4.0003160383252465e-05  -3.2297947176433632e-06  -1.8826260142208321e-05  -6.1357091862872209e-06  7.6876647238291260e-06  6.9714419901772026e-06  -2.9050027740661544e-06  -8.9980268033345213e-06  -7.0891598351842592e-06  -8.5185226337916405e-06  -3.6388505461696137e-05  -1.1664678713082246e-04  -2.6794617128667432e-04  -5.1739327994794481e-04  -8.0650904093529483e-04  -9.2989885457735058e-04  -1.0361396974239102e-03  -8.1232521041655053e-03  -1.4372192647017572e-02  2.9783304988202747e-01  3.4242721784324828e+00  0.0000000000000000e+00  2.8105347024037693e-04  7.3620245787682406e-04  9.3223645443002488e-04  5.7921976267769949e-04  7.5536494727209140e-05  -1.3980656442120283e-04  -8.3079687529525548e-05  1.1797554008988278e-05  2.9207679191199894e-05  3.6757035325506628e-06  -9.7631366125229260e-06  -3.5710674161961906e-06  3.6365777510252267e-06  2.5122712673162268e-06  -1.5991157863812131e-06  -1.8525517280520486e-06  1.4558382402771605e-06  3.9077991126779502e-06  4.9022336196715044e-06  1.2361920509271501e-05  4.2634842783816929e-05  1.1241322556532560e-04  2.4578540608506921e-04  3.7587335399569515e-04  7.0368747883357797e-04  1.4254376662363652e-03  -9.2471816948049566e-04  -1.8249608104865943e-02  1.6782704989472741e-01  2.8171571955573942e+00  0.0000000000000000e+00  2.0282722981460440e-04  4.8294815011715511e-04  5.5114395321520201e-04  2.8110439265734355e-04  -1.1110982070911792e-05  -8.5378258111544733e-05  -2.5236415396791417e-05  1.6592775725576035e-05  9.8283272230812709e-06  -3.8176254294483594e-06  -3.5499921417196884e-06  1.2297120250701084e-06  1.4683613731812697e-06  -5.8068515581570950e-07  -7.6002874998726288e-07  3.8604184475628274e-07  3.9387583901035685e-07  -9.5114657011556498e-07  -2.2853679767688091e-06  -4.5217892979742413e-06  -1.5279416855690083e-05  -4.2551627244282467e-05  -1.1031520444623162e-04  -1.9015739874361185e-04  -4.7305546153868575e-04  -7.3909575621004353e-05  -8.5672282778587313e-04  -1.7754736731773482e-02  7.5582063081516715e-02  2.2945921430139684e+00  0.0000000000000000e+00  1.4207556943514308e-04  3.0971197983017159e-04  3.2139426610854239e-04  1.3476803434005603e-04  -2.7814084976262292e-05  -4.6420931399988236e-05  -5.1470195317745251e-06  1.0212923244922555e-05  1.9923167423837245e-06  -2.7350880693428337e-06  -4.6870411294707855e-07  9.4014579550943378e-07  3.8918520642385167e-08  -3.9702560591080303e-07  7.7071710870886570e-08  2.0253056903914507e-07  -1.0300502482385794e-07  1.0803035782800310e-08  7.1510711322413732e-07  1.5922452798251765e-06  5.7359229094119286e-06  1.3148133145063300e-05  5.1549552096735337e-05  8.5097517269814427e-05  2.0331823226944811e-04  2.5362466837893606e-04  1.8108392786482450e-03  -1.2148068526669992e-02  2.3496929278496764e-02  1.8483368360052053e+00  0.0000000000000000e+00  9.6606854885685208e-05  1.9417825174647120e-04  1.8505464593846958e-04  6.4222995796728939e-05  -2.4160815096901682e-05  -2.4460695716063115e-05  1.2390591060610678e-07  5.1537625710410747e-06  -1.3370598271714844e-08  -1.2185344433381491e-06  1.6623491337670608e-07  3.1430663360593177e-07  -1.3612591628210321e-07  -6.7367370708301778e-08  8.4390942337642347e-08  -1.0393323589916898e-08  -4.7471829232095205e-08  2.2408366958213551e-08  -1.4711866481037408e-07  -3.6949619038843599e-07  -2.5365591258292777e-06  -1.9408498299781790e-06  -2.7284874101205962e-05  -1.6029669759734722e-05  -1.4798470209415745e-04  -1.7482704044130117e-04  7.0100004339592045e-04  -7.2987089279174470e-03  -1.1410050772279847e-02  1.4705736633134312e+00  0.0000000000000000e+00  6.3666275788751547e-05  1.1879490780689303e-04  1.0500583501473360e-04  3.0456451108530889e-05  -1.7063691781192784e-05  -1.3179704926444789e-05  7.9322928665397987e-07  2.4978859346588382e-06  -2.2217134126462554e-07  -4.7965069525573144e-07  1.3461753518679229e-07  7.7356520772451314e-08  -6.1128307648563815e-08  4.4342609653899549e-09  1.8032130846277616e-08  -1.4144555944268620e-08  3.8357970670381738e-09  3.5527304528205127e-09  5.6780030911807429e-08  -1.0960202982882935e-07  1.5274074217925559e-06  -1.8285643602143769e-06  1.5864520554713798e-05  -9.0402549859281509e-06  1.1370384638502473e-04  -1.4334698050676688e-04  1.1295239416384188e-03  -2.9062598336212541e-03  -2.6533868621279575e-02  1.1539075873003082e+00  0.0000000000000000e+00  4.0522007019984314e-05  7.0610683363389127e-05  5.8375335049825276e-05  1.4211011298309076e-05  -1.1189441650029466e-05  -7.5224645375673816e-06  4.3090262781622692e-07  1.2610372812695487e-06  -9.6924535276085290e-08  -1.9934651454148858e-07  5.1385729847031383e-08  2.1445369476673366e-08  -1.6821575835509964e-08  3.8296082004713972e-09  1.2021949113961288e-09  -1.6097398032058148e-09  -4.4791504169931970e-10  1.1265428968872611e-08  -7.6429624242893146e-08  3.1582993444570293e-07  -1.3846017109861002e-06  3.2998419388406836e-06  -1.1323073637316474e-05  1.3586924954757370e-05  -4.7995477422542205e-05  -3.8564558674415471e-05  9.5278355534069882e-05  1.8746832293059954e-04  -3.4437311964105898e-02  8.9136614390683133e-01  0.0000000000000000e+00  2.4755407954641564e-05  4.0463777516607449e-05  3.1422067991461126e-05  6.2550878112938895e-06  -7.1951147822524831e-06  -4.6171157164189603e-06  2.7056224093518419e-08  6.7476883296006949e-07  1.1824946725307180e-08  -9.1359506178085038e-08  8.6196368357321647e-09  9.0405395175850030e-09  -3.1647208032878478e-09  7.8410249210206409e-10  -1.4365389559133038e-09  4.5971806831937218e-09  -1.2748257502369233e-08  2.5579987707098453e-08  -1.6327053312460212e-08  -1.2802636275024842e-07  7.7719111362762336e-07  -2.4019025654702038e-06  7.1013950162329104e-06  -1.2462433095895419e-05  3.4279762974144667e-05  -2.4889511194355260e-05  1.2208600805235787e-05  1.9561987391944462e-03  -3.3916872249376541e-02  6.7639944265333007e-01  0.0000000000000000e+00  1.4367364948830719e-05  2.2061092149304613e-05  1.6016804042364634e-05  2.2570170774813893e-06  -4.6980352311306440e-06  -3.0400947546014355e-06  -2.3718113511301706e-07  3.6262351432050693e-07  6.4818945391683128e-08  -3.8717333512912469e-08  -6.4701416514591986e-09  3.2882972634038301e-09  1.4422074643818980e-10  6.3404699906057074e-10  -3.0894035215005843e-09  1.0152977617231624e-08  -2.9919803782619221e-08  8.7866547684769347e-08  -2.6399640290724561e-07  7.7639743947450735e-07  -2.1335502060230086e-06  5.2911108594938640e-06  -1.2280307805347370e-05  2.5471553727598706e-05  -5.7445709329652933e-05  1.2533164142681196e-04  -4.8451050852407057e-04  2.9009995881755374e-03  -3.1064662765647507e-02  5.0288016663946689e-01  0.0000000000000000e+00  7.7823641004317480e-06  1.1171621676415786e-05  7.3855223123921215e-06  2.1134514126758631e-07  -3.2027243431810840e-06  -2.1280271533183221e-06  -3.7904289628890177e-07  1.6963773762814547e-07  7.6842206693572190e-08  -6.5188463993274825e-09  -7.7990440129266807e-09  -5.9110820128769831e-10  5.1501452532255273e-10  3.1988348003623261e-10  -2.4289705269146612e-09  9.5261680557525715e-09  -2.7337266692782435e-08  6.1123611224547670e-08  -1.0272736392887376e-07  1.1086250192057744e-07  -1.9622726739056891e-08  -1.1009061260230111e-07  -3.9436070787305006e-07  4.8486831221545101e-06  -2.3530977809516211e-05  1.0774223149480850e-04  -4.8410229130697613e-04  2.9715356303391138e-03  -2.5630768407517737e-02  3.6510357254423820e-01  0.0000000000000000e+00  3.8032422238639988e-06  4.9968713820487020e-06  2.7254784336266655e-06  -8.0992646764551909e-07  -2.3211288614459337e-06  -1.5734968458067609e-06  -4.4309752115591891e-07  3.6244338109122975e-08  6.2325538947896946e-08  1.2627425435657708e-08  -2.6561535370894238e-09  -1.7598414199893537e-09  5.3553241069532035e-11  -6.6017187118718157e-10  4.1204172312698530e-10  2.6181304143995060e-09  -1.7451799512895055e-08  7.4109332715396793e-08  -2.5717565504148507e-07  7.6712629464243576e-07  -2.0193073667198841e-06  4.8237018838376591e-06  -1.0862875942739643e-05  2.4221303234380677e-05  -5.7827836274428857e-05  1.5849750896757491e-04  -5.6202701740332931e-04  2.7218689364657913e-03  -2.0171913718797278e-02  2.5778749062597378e-01  0.0000000000000000e+00  1.5479240876562543e-06  1.7106061242360977e-06  3.8126323334086908e-07  -1.2482237222655660e-06  -1.7862056286292136e-06  -1.2234916566776467e-06  -4.6420362307349758e-07  -6.1234883730152808e-08  3.0897155116832997e-08  1.8770982353979202e-08  3.8204134602721058e-09  -5.3867481803663096e-11  -2.5335225448558483e-10  -7.3151389668189835e-10  1.5421456437879236e-09  -2.9662605830828878e-09  5.4570038585818641e-09  -1.4130530143575378e-08  4.2050019647124435e-08  -1.0015936148387427e-07  1.3455564888166055e-07  1.7316914541816866e-07  -1.9525721563830329e-06  8.7483736793347083e-06  -3.1940962830401029e-05  1.1399122805422828e-04  -4.4409489475725556e-04  2.1565658243792602e-03  -1.4742817847085083e-02  1.7607232472233714e-01  0.0000000000000000e+00  3.8495243533819681e-07  1.3609619241030047e-07  -6.3577065598213680e-07  -1.3321108510438831e-06  -1.4247270077657084e-06  -9.8852843008918743e-07  -4.6190236479335030e-07  -1.3312355636091142e-07  -1.0231333669036803e-08  1.1329645737953257e-08  6.7196808854416262e-09  2.4881247646523293e-09  3.0363432367583402e-10  3.9808454735601870e-10  4.7457636088536124e-10  -1.5836409822504618e-09  -5.1029151726106587e-10  2.2121642619014066e-08  -1.0682293525029471e-07  3.4955165259438924e-07  -9.3765919414216329e-07  2.2599238672618772e-06  -5.2604730255731564e-06  1.2632527097981817e-05  -3.3099763446675726e-05  9.8738040373182908e-05  -3.5135083148357264e-04  1.5872091487941725e-03  -1.0187994919716996e-02  1.1552105225032541e-01  0.0000000000000000e+00  -1.2430615226416504e-07  -4.7397094679496874e-07  -9.2372070538307677e-07  -1.2003177542198190e-06  -1.1334841752227014e-06  -8.0774262487736429e-07  -4.4091815882522555e-07  -1.8225848667269552e-07  -5.3794581918892643e-08  -7.9740078666859014e-09  2.0353541780950531e-09  2.4346147920484778e-09  1.0189969853930769e-09  1.1002758891917245e-09  -5.9508189678334416e-10  -2.8612078229408689e-10  8.6768151124517494e-09  -3.6801042237048907e-08  1.0649012370032407e-07  -2.3718689123298842e-07  4.0771466020379656e-07  -4.5513982076327644e-07  -1.9338475249592112e-07  3.3378870321706702e-06  -1.4892996193024748e-05  5.6653793299330612e-05  -2.2329143861471405e-04  1.0356554138423798e-03  -6.5096009950580992e-03  7.2119224206269303e-02  0.0000000000000000e+00  -2.7396291450157112e-07  -5.8473156141262958e-07  -8.4729085701625054e-07  -9.5313494792640519e-07  -8.6333825218720075e-07  -6.4127178208178868e-07  -3.9620971142116636e-07  -2.0509238133554728e-07  -9.0136847411511260e-08  -3.3102827823666852e-08  -1.0685918703829207e-08  -2.5604600281325417e-09  -6.4987013657751856e-10  1.6686356100113233e-11  -5.7881955584501076e-10  2.6485354347307817e-09  -1.0005618897712524e-08  2.9309547007533779e-08  -7.1834913477933864e-08  1.5048845500905486e-07  -2.8503420146717488e-07  5.3363439630222973e-07  -1.1304707980673423e-06  2.9630496724490410e-06  -9.3051303420324263e-06  3.2882511408122211e-05  -1.3006600552715702e-04  6.0940472546944387e-04  -3.8219476097491366e-03  4.2274965165833088e-02  0.0000000000000000e+00  -2.5227207527368818e-07  -4.7644623412794989e-07  -6.2689191132771140e-07  -6.6964420581165224e-07  -6.0558265764525197e-07  -4.7256838473750822e-07  -3.2334688259997579e-07  -1.9595371781379902e-07  -1.0772538512789050e-07  -5.3504873041261752e-08  -2.5955949867598604e-08  -1.1191644645808176e-08  -5.7421795087701878e-09  -2.3812625413376022e-09  -1.1618108736400109e-09  -2.5093458687540669e-09  6.9060349296203884e-09  -2.3246794163912029e-08  5.7532526879531647e-08  -1.2250590083445232e-07  2.2447453672250178e-07  -3.5558486262943126e-07  4.3996993406830671e-07  -1.3021406726243395e-07  -2.0309374340487179e-06  1.2229294729703682e-05  -5.9323496244990366e-05  3.0538958178053682e-04  -1.9973420689579414e-03  2.2818973284014863e-02  0.0000000000000000e+00  -1.7169510842639853e-07  -3.0842522323554943e-07  -3.8969358403835812e-07  -4.0952679972501936e-07  -3.7597663582339748e-07  -3.0812881203276691e-07  -2.2914037684597290e-07  -1.5594110312075938e-07  -9.9383690528271247e-08  -5.8659269785129873e-08  -3.4520451543810745e-08  -1.8056673270223689e-08  -1.1183681213243678e-08  -5.0300853793274149e-09  -4.0488547921729329e-09  5.3543740931875515e-10  -9.1201246742797651e-09  2.1371456010025167e-08  -4.8573378056503340e-08  8.6685923461242525e-08  -1.2975048162367508e-07  1.5580670027348141e-07  -1.4048795026102446e-07  1.1284247213413964e-07  -4.5676478420781393e-07  3.3751331770851336e-06  -2.0700504999908812e-05  1.2410035276265156e-04  -8.9090934475667162e-04  1.1004520295146055e-02  0.0000000000000000e+00  -9.1919106002060108e-08  -1.6114837594160893e-07  -2.0008901800535772e-07  -2.0995960349914082e-07  -1.9658059072611598e-07  -1.6817528109862817e-07  -1.3351858791379333e-07  -9.9052967116036347e-08  -7.0002988841233105e-08  